3080
Atoms. Timestep: 617
1 26.8982 23.0591 1.98291
1 29.7086 22.4225 1.83926
1 31.6338 24.2508 1.54648
1 32.2332 21.6814 1.76663
1 34.2332 23.5154 1.73219
1 23.0576 26.8987 1.98355
1 24.9253 24.9263 1.97015
1 26.8526 26.8534 1.98956
1 28.7819 24.9326 1.92256
1 30.7823 26.8398 2.06568
1 33.561 26.1126 1.67084
1 35.4236 28.0247 1.69897
1 36.1882 25.4518 1.79501
1 38.0262 27.4273 1.90676
1 22.4212 29.7092 1.83951
1 24.2498 31.6339 1.54662
1 24.9313 28.7823 1.92308
1 26.839 30.7823 2.06585
1 28.8263 28.8267 2.08984
1 30.8098 30.8098 2.17885
1 32.7463 28.7948 2.15585
1 34.6905 30.7907 2.23115
1 37.2533 29.9372 1.85089
1 39.0266 31.5279 2.87649
1 21.6807 32.2339 1.76716
1 23.515 34.2338 1.73245
1 26.1119 33.5607 1.67099
1 28.0243 35.423 1.69901
1 28.7944 32.7458 2.15579
1 30.7906 34.6894 2.23077
1 32.8001 32.7997 2.27107
1 34.7893 34.7888 2.41511
1 36.6437 32.7484 2.30583
1 38.5126 34.4051 2.70026
1 25.4518 36.1882 1.79519
1 27.4276 38.0259 1.90671
1 29.9371 37.2523 1.85057
1 31.5284 39.0255 2.8748
1 32.7483 36.6423 2.30516
1 34.4071 38.5091 2.69821
1 36.5868 36.5841 2.66504
1 32.7409 30.7505 4.23434
1 32.6927 26.6848 4.13195
1 30.7616 21.1009 3.97014
1 38.6188 28.9267 4.09454
1 36.7873 30.8989 4.37202
1 26.8057 24.8328 4.0439
1 36.7569 26.8431 4.10506
1 22.941 32.8042 3.98049
1 24.8319 26.8061 4.04413
1 32.8035 22.9413 3.9801
1 26.685 32.6931 4.13215
1 24.8544 34.8101 4.03564
1 22.6316 28.4742 4.1479
1 21.1001 30.7625 3.97075
1 30.7506 32.7405 4.23432
1 28.7706 34.7595 4.19244
1 28.473 22.6319 4.14751
1 30.5885 24.6056 4.00363
1 34.731 32.7607 4.34801
1 32.761 34.7304 4.34787
1 26.7842 28.7812 4.07324
1 24.6055 30.5894 4.00398
1 38.9598 32.9543 4.94616
1 36.7791 34.727 4.56486
1 28.7809 26.7848 4.07311
1 22.9794 24.9391 3.86513
1 26.8436 36.7568 4.10503
1 30.7574 28.76 4.14948
1 28.7597 30.7574 4.14948
1 30.8993 36.7867 4.37157
1 28.9275 38.6186 4.09426
1 24.9389 22.98 3.8648
1 34.8099 24.8543 4.03547
1 34.7286 36.7775 4.56434
1 32.9555 38.9576 4.94359
1 34.7596 28.7702 4.19251
1 26.5945 22.5993 6.10045
1 28.9164 20.797 6.06973
1 30.709 22.774 6.13472
1 32.6646 21.0066 5.94812
1 34.7404 22.8722 6.01552
1 22.5988 26.5953 6.10051
1 24.6397 24.6402 6.02854
1 26.7004 26.7008 6.17652
1 28.639 24.6373 6.16476
1 30.6936 26.6366 6.17428
1 32.767 24.7001 6.15984
1 34.7788 26.6948 6.209
1 36.741 24.8588 6.07813
1 38.6242 26.9508 6.12024
1 20.7966 28.9173 6.07015
1 22.7737 30.7098 6.13505
1 24.6371 28.6396 6.16497
1 26.6366 30.694 6.17441
1 28.7036 28.7038 6.21565
1 30.7044 30.7043 6.28973
1 32.7211 28.661 6.24852
1 34.7106 30.7026 6.36005
1 36.7534 28.7526 6.27491
1 38.8079 30.6183 6.34597
1 21.0064 32.6656 5.94861
1 22.8724 34.741 6.01574
1 24.7002 32.7675 6.16008
1 26.6953 34.7791 6.20908
1 28.6612 32.7211 6.24854
1 30.7031 34.7103 6.36
1 32.7088 32.7084 6.38741
1 34.7343 34.7337 6.503
1 36.7695 32.7192 6.52728
1 38.6574 34.8432 6.72413
1 24.8594 36.7414 6.07822
1 26.9517 38.6242 6.12009
1 28.7534 36.7534 6.27475
1 30.62 38.8073 6.34537
1 32.72 36.7688 6.52683
1 34.8436 38.6564 6.72299
1 36.7143 36.7135 6.52403
1 32.6895 30.6376 8.36524
1 32.7465 26.6019 8.2532
1 30.7863 20.7116 8.04742
1 38.7887 28.659 8.32176
1 36.8323 30.6421 8.38687
1 26.5987 24.581 8.14407
1 36.8861 26.6066 8.22503
1 22.6037 32.8602 8.11644
1 24.5806 26.5992 8.14407
1 32.8594 22.6035 8.11616
1 26.6021 32.7468 8.25329
1 24.5846 34.8885 8.17044
1 22.5213 28.5741 8.10958
1 20.7115 30.7873 8.04778
1 30.638 32.6893 8.36521
1 28.6191 34.7634 8.32217
1 28.5734 22.5215 8.1094
1 30.6928 24.6098 8.21044
1 34.7152 32.6734 8.46394
1 32.674 34.7148 8.46392
1 26.619 28.6581 8.23334
1 24.6098 30.6934 8.21059
1 38.8186 32.6409 8.37832
1 36.7676 34.7535 8.53404
1 28.6578 26.6191 8.23333
1 22.7401 24.6663 8.04805
1 26.6075 36.8864 8.22498
1 30.6815 28.6197 8.2783
1 28.6199 30.6815 8.27832
1 30.6431 36.8321 8.38668
1 28.6603 38.7886 8.32128
1 24.6656 22.7407 8.04802
1 34.8879 24.5841 8.17033
1 34.7543 36.7673 8.53392
1 32.642 38.8179 8.37823
1 34.7634 28.6185 8.32222
1 26.5528 22.4567 10.0826
1 28.84 20.6662 10.0392
1 30.6992 22.582 10.1311
1 32.6364 20.745 10.0946
1 34.7432 22.6331 10.1561
1 22.4563 26.5535 10.0828
1 24.5004 24.5009 10.1124
1 26.5632 26.5636 10.1986
1 28.5809 24.4869 10.1775
1 30.6668 26.5484 10.2654
1 32.7909 24.5343 10.2069
1 34.8193 26.5386 10.2669
1 36.7672 24.6401 10.2104
1 38.677 26.7026 10.2842
1 20.6661 28.8409 10.0395
1 22.582 30.6999 10.1313
1 24.4867 28.5815 10.1775
1 26.5485 30.6671 10.2654
1 28.6067 28.6068 10.2754
1 30.6264 30.6263 10.3363
1 32.7054 28.5677 10.3244
1 34.737 30.6073 10.3832
1 36.8192 28.6041 10.3344
1 38.8225 30.6223 10.3688
1 20.7452 32.6375 10.0948
1 22.6337 34.7441 10.1563
1 24.5346 32.7914 10.2071
1 26.5392 34.8196 10.2669
1 28.568 32.7055 10.3243
1 30.6078 34.7369 10.3832
1 32.6613 32.661 10.4114
1 34.734 34.7335 10.4732
1 36.8244 32.6322 10.4034
1 38.6952 34.5738 10.3737
1 24.6411 36.7678 10.2104
1 26.704 38.6774 10.284
1 28.605 36.8193 10.3343
1 30.6233 38.8223 10.3686
1 32.633 36.824 10.4034
1 34.5747 38.6946 10.3739
1 36.7245 36.7238 10.4613
1 32.6726 30.5919 12.3434
1 32.7326 26.4856 12.2642
1 30.6889 20.569 12.0851
1 38.8057 28.5907 12.3289
1 36.843 30.6003 12.3544
1 26.5236 24.4604 12.1393
1 36.8737 26.4843 12.2896
1 22.4616 32.7962 12.1639
1 24.4601 26.5241 12.1393
1 32.7954 22.4612 12.1638
1 26.4859 32.7329 12.2642
1 24.4407 34.8647 12.2312
1 22.3941 28.517 12.1056
1 20.569 30.6899 12.0852
1 30.5922 32.6725 12.3433
1 28.5315 34.765 12.321
1 28.5162 22.3942 12.1055
1 30.6457 24.4734 12.1919
1 34.7444 32.6572 12.3692
1 32.6577 34.7441 12.3693
1 26.5096 28.5782 12.2198
1 24.4736 30.6463 12.1919
1 38.8047 32.6357 12.3703
1 36.8501 34.7486 12.3591
1 28.5778 26.5097 12.2198
1 22.6161 24.5924 12.0663
1 26.4852 36.8742 12.2896
1 30.6308 28.5482 12.293
1 28.5483 30.6309 12.2929
1 30.6011 36.8429 12.3545
1 28.5918 38.8058 12.3288
1 24.5916 22.6167 12.0662
1 34.8641 24.44 12.2312
1 34.7493 36.8495 12.3592
1 32.6367 38.8043 12.3704
1 34.7648 28.5309 12.321
1 26.4886 22.3689 14.088
1 28.7537 20.5699 14.0773
1 30.6316 22.4751 14.142
1 32.5594 20.6134 14.1256
1 34.6934 22.502 14.1926
1 22.3687 26.4893 14.0881
1 24.4207 24.4212 14.0923
1 26.4839 26.4843 14.1618
1 28.5235 24.3953 14.1524
1 30.6174 26.4601 14.22
1 32.7388 24.4324 14.2082
1 34.7907 26.4537 14.2652
1 36.7511 24.5255 14.2521
1 38.6817 26.6286 14.2929
1 20.5698 28.7546 14.0773
1 22.4752 30.6324 14.1421
1 24.3952 28.5241 14.1524
1 26.4602 30.6177 14.2199
1 28.5379 28.538 14.2293
1 30.5929 30.5928 14.2834
1 32.6795 28.5088 14.2766
1 34.7271 30.5836 14.3094
1 36.8139 28.5523 14.3034
1 38.8112 30.5987 14.3284
1 20.6138 32.5604 14.1255
1 22.5026 34.6943 14.1925
1 24.4328 32.7394 14.2082
1 26.4543 34.7911 14.2652
1 28.509 32.6796 14.2766
1 30.5841 34.7269 14.3094
1 32.6613 32.661 14.3059
1 34.7495 34.7489 14.3041
1 36.8013 32.6417 14.3229
1 38.658 34.589 14.3438
1 24.5264 36.7518 14.2519
1 26.6297 38.6822 14.2929
1 28.5531 36.8141 14.3035
1 30.5997 38.8111 14.3285
1 32.6425 36.801 14.323
1 34.59 38.6575 14.3439
1 36.6965 36.6957 14.3156
1 32.6496 30.5743 16.248
1 32.6844 26.4347 16.2154
1 30.6202 20.4743 16.108
1 38.79 28.5607 16.2838
1 36.8142 30.5867 16.2764
1 26.4649 24.4009 16.1125
1 36.8423 26.4361 16.2548
1 22.3736 32.7341 16.1629
1 24.4006 26.4654 16.1124
1 32.7333 22.3732 16.163
1 26.4351 32.6848 16.2154
1 24.3658 34.8161 16.2154
1 22.3297 28.4588 16.1097
1 20.4743 30.6212 16.108
1 30.5746 32.6495 16.248
1 28.5022 34.733 16.253
1 28.4579 22.3298 16.1097
1 30.591 24.41 16.1664
1 34.7208 32.6611 16.2653
1 32.6616 34.7205 16.2654
1 26.4513 28.525 16.1655
1 24.4101 30.5915 16.1664
1 38.7743 32.6265 16.2983
1 36.8039 34.7452 16.2866
1 28.5247 26.4514 16.1656
1 22.5571 24.531 16.0649
1 26.4368 36.8427 16.2547
1 30.5888 28.5026 16.214
1 28.5026 30.589 16.2139
1 30.5874 36.814 16.2765
1 28.5618 38.7902 16.2838
1 24.5304 22.5576 16.0649
1 34.8155 24.3653 16.2155
1 34.7461 36.8033 16.2866
1 32.6275 38.7739 16.2983
1 34.7329 28.5017 16.253
1 26.4368 22.3233 18.0821
1 28.6906 20.5091 18.0878
1 30.5806 22.4163 18.1273
1 32.5127 20.5401 18.1287
1 34.6497 22.4391 18.1719
1 22.323 26.4376 18.0821
1 24.3771 24.3777 18.0797
1 26.4429 26.4433 18.1193
1 28.4767 24.356 18.1211
1 30.5735 26.4285 18.1602
1 32.691 24.3875 18.1659
1 34.749 26.4231 18.1997
1 36.7173 24.4804 18.209
1 38.6563 26.5951 18.2378
1 20.509 28.6916 18.0877
1 22.4164 30.5814 18.1273
1 24.356 28.4772 18.1211
1 26.4286 30.5739 18.1601
1 28.5015 28.5017 18.1564
1 30.5637 30.5636 18.188
1 32.6413 28.4879 18.1921
1 34.6939 30.5701 18.2175
1 36.7813 28.5319 18.2276
1 38.7804 30.5848 18.2514
1 20.5404 32.5138 18.1286
1 22.4397 34.6505 18.1718
1 24.3879 32.6916 18.1659
1 26.4236 34.7493 18.1997
1 28.4881 32.6414 18.1922
1 30.5706 34.6939 18.2176
1 32.6374 32.6371 18.214
1 34.7216 34.721 18.2411
1 36.7656 32.6243 18.2423
1 38.6245 34.5732 18.2642
1 24.4812 36.7179 18.2089
1 26.596 38.6567 18.2377
1 28.5326 36.7815 18.2276
1 30.5858 38.7804 18.2514
1 32.6251 36.7652 18.2423
1 34.5742 38.6239 18.2642
1 36.6757 36.6749 18.2676
1 32.6175 30.5514 20.1642
1 32.6466 26.4176 20.1462
1 30.5769 20.4237 20.0995
1 38.7588 28.5441 20.2036
1 36.779 30.5674 20.195
1 26.4304 24.3711 20.088
1 36.8017 26.4197 20.1807
1 22.3399 32.6904 20.1287
1 24.3708 26.431 20.088
1 32.6896 22.3396 20.1288
1 26.4179 32.647 20.1462
1 24.3424 34.7741 20.1559
1 22.2986 28.4216 20.0915
1 20.4238 30.578 20.0994
1 30.5516 32.6173 20.1642
1 28.4872 34.6952 20.17
1 28.4207 22.2988 20.0916
1 30.5535 24.386 20.1213
1 34.6881 32.6313 20.1915
1 32.6318 34.6878 20.1914
1 26.4275 28.4929 20.1151
1 24.3861 30.5541 20.1213
1 38.7434 32.6055 20.2184
1 36.7772 34.7156 20.2193
1 28.4925 26.4276 20.1151
1 22.5221 24.4934 20.0625
1 26.4204 36.8021 20.1806
1 30.5577 28.4821 20.1401
1 28.4822 30.5578 20.1401
1 30.5681 36.7789 20.1949
1 28.5451 38.759 20.2036
1 24.4927 22.5226 20.0626
1 34.7735 24.3419 20.1559
1 34.7164 36.7767 20.2193
1 32.6065 38.7432 20.2184
1 34.6951 28.4868 20.17
1 26.4097 22.2986 22.0671
1 28.6551 20.4806 22.0743
1 30.5513 22.3924 22.0916
1 32.4898 20.5123 22.0972
1 34.622 22.4218 22.1174
1 22.2983 26.4106 22.067
1 24.3543 24.3549 22.0652
1 26.4225 26.4229 22.084
1 28.4519 24.3388 22.0851
1 30.5474 26.4145 22.1038
1 32.66 24.374 22.1099
1 34.7157 26.4112 22.1287
1 36.6856 24.4669 22.1366
1 38.6242 26.5799 22.1554
1 20.4805 28.6562 22.0741
1 22.3924 30.5521 22.0915
1 24.3387 28.4525 22.085
1 26.4145 30.5478 22.1038
1 28.4818 28.4819 22.1015
1 30.5406 30.5405 22.1203
1 32.6121 28.4712 22.1223
1 34.6622 30.5467 22.1442
1 36.748 28.5158 22.1489
1 38.7501 30.5643 22.1706
1 20.5126 32.4908 22.0971
1 22.4223 34.6227 22.1173
1 24.3743 32.6606 22.1099
1 26.4117 34.7161 22.1286
1 28.4714 32.6123 22.1224
1 30.5472 34.6621 22.1441
1 32.6087 32.6084 22.1428
1 34.6932 34.6926 22.168
1 36.7375 32.598 22.1686
1 38.6018 34.5458 22.1926
1 24.4677 36.6862 22.1365
1 26.5808 38.6246 22.1553
1 28.5166 36.7482 22.1488
1 30.5653 38.75 22.1705
1 32.5987 36.7372 22.1686
1 34.5469 38.6013 22.1924
1 36.6507 36.65 22.1929
1 32.5943 30.531 24.1018
1 32.6244 26.4062 24.0883
1 30.5592 20.4053 24.0681
1 38.7301 28.5278 24.1247
1 36.7522 30.5465 24.1226
1 26.4138 24.3553 24.0611
1 36.7757 26.4082 24.1077
1 22.3304 32.6694 24.0797
1 24.355 26.4145 24.0611
1 32.6685 22.3301 24.0797
1 26.4064 32.6248 24.0883
1 24.3346 34.7502 24.0927
1 22.2859 28.4056 24.0635
1 20.4053 30.5603 24.0679
1 30.5313 32.5943 24.1018
1 28.471 34.6702 24.1037
1 28.4047 22.2861 24.0636
1 30.5349 24.3753 24.0755
1 34.6627 32.6076 24.1212
1 32.6081 34.6624 24.1212
1 26.4142 28.4767 24.0727
1 24.3753 30.5355 24.0755
1 38.7197 32.5803 24.1433
1 36.7519 34.6908 24.1431
1 28.4764 26.4144 24.0728
1 22.5022 24.4736 24.05
1 26.4089 36.776 24.1077
1 30.5389 28.4668 24.0859
1 28.4669 30.539 24.0859
1 30.5473 36.7522 24.1225
1 28.5287 38.7302 24.1246
1 24.4728 22.5028 24.05
1 34.7495 24.3341 24.0927
1 34.6915 36.7514 24.143
1 32.5813 38.7194 24.1433
1 34.67 28.4705 24.1037
1 26.3987 22.2854 26.0432
1 28.6439 20.4683 26.0461
1 30.5402 22.3836 26.0521
1 32.4814 20.5064 26.0537
1 34.6078 22.4187 26.0619
1 22.285 26.3995 26.0431
1 24.3434 24.344 26.0426
1 26.4123 26.4127 26.05
1 28.441 24.3301 26.0503
1 30.5343 26.4042 26.0584
1 32.6458 24.3666 26.0601
1 34.698 26.4012 26.0699
1 36.6661 24.4617 26.0721
1 38.6015 26.5709 26.0835
1 20.4682 28.6449 26.046
1 22.3836 30.541 26.052
1 24.3299 28.4417 26.0503
1 26.4042 30.5346 26.0583
1 28.47 28.4701 26.0577
1 30.5257 30.5256 26.0679
1 32.5958 28.4577 26.0685
1 34.6425 30.5301 26.0812
1 36.7265 28.5019 26.0826
1 38.7277 30.5452 26.0979
1 20.5066 32.4825 26.0536
1 22.4192 34.6086 26.0619
1 24.3669 32.6464 26.0601
1 26.4017 34.6984 26.0699
1 28.4581 32.596 26.0684
1 30.5307 34.6425 26.0812
1 32.5908 32.5905 26.0809
1 34.6731 34.6726 26.0968
1 36.7163 32.5787 26.0968
1 38.5808 34.526 26.1124
1 24.4625 36.6667 26.0722
1 26.5719 38.6018 26.0834
1 28.5026 36.7267 26.0826
1 30.5462 38.7276 26.0978
1 32.5794 36.7161 26.0967
1 34.527 38.5804 26.1123
1 36.6305 36.6298 26.1125
1 32.5824 30.5196 28.0476
1 32.6149 26.3976 28.0407
1 30.5557 20.4 28.0316
1 38.7121 28.5169 28.0586
1 36.7361 30.534 28.0578
1 26.4066 24.3471 28.0308
1 36.7634 26.3999 28.0492
1 22.326 32.6633 28.0355
1 24.3467 26.4073 28.0307
1 32.6625 22.3257 28.0356
1 26.3979 32.6152 28.0406
1 24.3293 34.7407 28.0413
1 22.2791 28.4007 28.0311
1 20.4 30.5567 28.0315
1 30.5199 32.5823 28.0476
1 28.4601 34.6577 28.0479
1 28.3998 22.2793 28.0312
1 30.528 24.3682 28.0351
1 34.6484 32.5944 28.0572
1 32.5949 34.6482 28.0572
1 26.4066 28.4691 28.035
1 24.3682 30.5286 28.0351
1 38.7015 32.566 28.0691
1 36.7363 34.676 28.0687
1 28.4688 26.4068 28.035
1 22.4923 24.4648 28.0268
1 26.4006 36.7638 28.0491
1 30.5293 28.4574 28.0404
1 28.4575 30.5295 28.0403
1 30.5347 36.736 28.0578
1 28.5179 38.7123 28.0585
1 24.4639 22.4929 28.0269
1 34.74 24.3288 28.0413
1 34.6767 36.7359 28.0687
1 32.5669 38.7013 28.0689
1 34.6576 28.4596 28.0479
1 26.3955 22.2794 30.0136
1 28.6433 20.4634 30.0139
1 30.5379 22.38 30.0151
1 32.4797 20.5056 30.0149
1 34.6033 22.418 30.0174
1 22.2789 26.3964 30.0136
1 24.3387 24.3394 30.0137
1 26.4076 26.408 30.0154
1 28.4374 24.3252 30.0153
1 30.5295 26.3986 30.0172
1 32.6415 24.3624 30.0172
1 34.691 26.3961 30.0207
1 36.6582 24.46 30.0216
1 38.5906 26.5684 30.027
1 20.4632 28.6444 30.0138
1 22.3799 30.5387 30.015
1 24.325 28.4381 30.0152
1 26.3987 30.5298 30.0171
1 28.4647 28.4649 30.0172
1 30.5191 30.519 30.0201
1 32.5891 28.4512 30.0202
1 34.633 30.5225 30.0246
1 36.7159 28.4958 30.0255
1 38.7142 30.5378 30.0316
1 20.5058 32.4808 30.0148
1 22.4185 34.6042 30.0173
1 24.3627 32.6421 30.0171
1 26.3966 34.6914 30.0206
1 28.4515 32.5892 30.0201
1 30.5229 34.633 30.0246
1 32.5827 32.5825 30.0245
1 34.6632 34.6628 30.0307
1 36.7042 32.5693 30.0308
1 38.5667 34.5143 30.0378
1 24.4607 36.6589 30.0215
1 26.5693 38.591 30.0269
1 28.4965 36.7161 30.0254
1 30.5387 38.7142 30.0315
1 32.5701 36.704 30.0308
1 34.5152 38.5663 30.0377
1 36.6179 36.6173 30.0376
1 32.5784 30.5162 31.9973
1 32.6124 26.395 31.9971
1 30.5569 20.3993 31.9975
1 38.7039 28.5166 32.0009
1 36.7286 30.5306 31.9996
1 26.405 24.3442 31.9977
1 36.759 26.399 31.9992
1 22.3251 32.6634 31.9969
1 24.3438 26.4057 31.9977
1 32.6625 22.3249 31.997
1 26.3953 32.6128 31.997
1 24.3285 34.7387 31.9975
1 22.2763 28.4005 31.9976
1 20.3992 30.558 31.9974
1 30.5164 32.5784 31.9973
1 28.4572 34.6532 31.9977
1 28.3997 22.2766 31.9977
1 30.5269 24.3658 31.9971
1 34.6429 32.5902 31.9989
1 32.5907 34.6427 31.9989
1 26.404 28.4672 31.9972
1 24.3657 30.5276 31.997
1 38.691 32.561 32.0027
1 36.729 34.6702 32.0021
1 28.4668 26.4043 31.9972
1 22.4892 24.4627 31.9982
1 26.3997 36.7594 31.999
1 30.5266 28.4546 31.9969
1 28.4546 30.5268 31.9968
1 30.5313 36.7286 31.9996
1 28.5176 38.7042 32.0009
1 24.4617 22.4899 31.9982
1 34.7381 24.328 31.9976
1 34.6708 36.7286 32.0021
1 32.5619 38.6908 32.0027
1 34.653 28.4568 31.9978
1 26.3967 22.279 33.982
1 28.6459 20.4635 33.982
1 30.5396 22.3806 33.9795
1 32.4822 20.5076 33.9796
1 34.6047 22.4207 33.9778
1 22.2784 26.3977 33.982
1 24.3389 24.3397 33.982
1 26.4077 26.4082 33.9794
1 28.4383 24.3252 33.9795
1 30.5297 26.3988 33.9769
1 32.6423 24.3635 33.9772
1 34.6904 26.3975 33.9755
1 36.6579 24.4635 33.9768
1 38.5877 26.5732 33.9759
1 20.4632 28.6471 33.982
1 22.3806 30.5405 33.9794
1 24.3249 28.4389 33.9794
1 26.3987 30.5301 33.9768
1 28.4648 28.465 33.9767
1 30.5188 30.5188 33.9744
1 32.5883 28.4513 33.9746
1 34.6303 30.5224 33.9729
1 36.7127 28.4977 33.9741
1 38.7082 30.5392 33.9737
1 20.5078 32.4834 33.9795
1 22.4211 34.6057 33.9776
1 24.3636 32.643 33.9771
1 26.398 34.6908 33.9754
1 28.4516 32.5885 33.9745
1 30.5229 34.6303 33.9728
1 32.5816 32.5814 33.9725
1 34.6605 34.66 33.972
1 36.6991 32.568 33.9723
1 38.5598 34.5101 33.9723
1 24.4641 36.6586 33.9766
1 26.5741 38.5883 33.9757
1 28.4984 36.7129 33.974
1 30.5402 38.7083 33.9736
1 32.5687 36.6989 33.9722
1 34.5111 38.5594 33.9723
1 36.6124 36.6117 33.9725
1 32.5796 30.5185 35.9503
1 32.6144 26.3982 35.9552
1 30.5611 20.4022 35.9641
1 38.702 28.5227 35.9494
1 36.7269 30.5339 35.9477
1 26.4075 24.3464 35.9634
1 36.7603 26.4043 35.9528
1 22.3289 32.6671 35.9596
1 24.3458 26.4083 35.9634
1 32.6661 22.3287 35.9598
1 26.3984 32.6149 35.9549
1 24.3331 34.7415 35.9559
1 22.2786 28.4039 35.9638
1 20.4021 30.5624 35.9639
1 30.5187 32.5797 35.9503
1 28.4605 34.6539 35.951
1 28.4029 22.2789 35.9639
1 30.5297 24.3686 35.9593
1 34.6431 32.592 35.9467
1 32.5925 34.6429 35.9467
1 26.4064 28.4696 35.9589
1 24.3685 30.5304 35.9592
1 38.6865 32.5631 35.9455
1 36.7278 34.6705 35.9443
1 28.4691 26.4067 35.959
1 22.4912 24.465 35.9675
1 26.405 36.7608 35.9525
1 30.5287 28.4571 35.9546
1 28.4571 30.5289 35.9545
1 30.5346 36.7269 35.9476
1 28.5236 38.7023 35.9492
1 24.4641 22.4919 35.9675
1 34.7408 24.3326 35.9562
1 34.6712 36.7273 35.9443
1 32.564 38.6863 35.9454
1 34.6536 28.4601 35.9511
1 26.4014 22.2829 37.9493
1 28.6512 20.4677 37.9495
1 30.5446 22.3855 37.9437
1 32.4884 20.5133 37.9442
1 34.61 22.4276 37.9388
1 22.2824 26.4024 37.9493
1 24.3432 24.344 37.9491
1 26.412 26.4125 37.943
1 28.4427 24.3296 37.9433
1 30.5337 26.4036 37.9372
1 32.6467 24.3692 37.9379
1 34.6939 26.4038 37.9324
1 36.662 24.4715 37.9339
1 38.5898 26.5824 37.9289
1 20.4673 28.6524 37.9493
1 22.3854 30.5457 37.9435
1 24.3293 28.4435 37.9432
1 26.4035 30.5342 37.9371
1 28.469 28.4693 37.9369
1 30.5228 30.5229 37.9309
1 32.5915 28.4562 37.9313
1 34.6321 30.5271 37.9257
1 36.7141 28.5046 37.9271
1 38.7074 30.5458 37.9225
1 20.5135 32.4897 37.944
1 22.4279 34.6111 37.9386
1 24.3693 32.6475 37.9377
1 26.4042 34.6944 37.9322
1 28.4563 32.5918 37.9312
1 30.5275 34.6321 37.9256
1 32.5849 32.5848 37.9253
1 34.6621 34.6617 37.9208
1 36.6988 32.5717 37.9212
1 38.5578 34.5115 37.9175
1 24.4721 36.6627 37.9336
1 26.5832 38.5903 37.9286
1 28.5052 36.7144 37.9268
1 30.5466 38.7074 37.9223
1 32.5723 36.6987 37.921
1 34.5124 38.5573 37.9174
1 36.6118 36.6111 37.9173
1 32.5844 30.5243 39.9068
1 32.6197 26.4051 39.9145
1 30.5684 20.4086 39.9296
1 38.7042 28.5321 39.9027
1 36.7291 30.5407 39.9012
1 26.4134 24.3521 39.9286
1 36.765 26.4132 39.9091
1 22.3365 32.6738 39.9221
1 24.3515 26.4142 39.9286
1 32.6728 22.3364 39.9223
1 26.4053 32.6203 39.9144
1 24.3414 34.7476 39.9153
1 22.2848 28.4105 39.9292
1 20.4085 30.5697 39.9294
1 30.5245 32.5844 39.9067
1 28.4674 34.6582 39.9074
1 28.4095 22.2851 39.9294
1 30.5356 24.3753 39.9217
1 34.6467 32.5973 39.9004
1 32.5976 34.6466 39.9003
1 26.4124 28.4754 39.9211
1 24.3752 30.5364 39.9216
1 38.6866 32.5688 39.896
1 36.7304 34.6747 39.895
1 28.4748 26.4128 39.9212
1 22.4966 24.4707 39.9354
1 26.4138 36.7656 39.9088
1 30.5341 28.4632 39.9139
1 28.4631 30.5344 39.9138
1 30.5413 36.7292 39.901
1 28.5328 38.7045 39.9024
1 24.4698 22.4974 39.9355
1 34.7467 24.3411 39.9156
1 34.6753 36.7301 39.895
1 32.5696 38.6865 39.8958
1 34.6578 28.4671 39.9075
1 26.4087 22.2898 41.9155
1 28.6592 20.4749 41.9155
1 30.5525 22.3935 41.9075
1 32.4972 20.5223 41.9079
1 34.6178 22.4375 41.9001
1 22.2892 26.4099 41.9154
1 24.3503 24.3512 41.9152
1 26.4191 26.4197 41.9067
1 28.4499 24.3372 41.9071
1 30.5405 26.4113 41.8986
1 32.6539 24.3779 41.8992
1 34.7001 26.4128 41.8914
1 36.6685 24.4822 41.8927
1 38.5945 26.5938 41.8854
1 20.4745 28.6604 41.9152
1 22.3933 30.5535 41.9072
1 24.3368 28.4508 41.907
1 26.4112 30.5412 41.8985
1 28.476 28.4765 41.8983
1 30.5295 30.5297 41.8901
1 32.5976 28.4638 41.8905
1 34.6367 30.5344 41.8828
1 36.7185 28.5137 41.8838
1 38.71 30.5543 41.8771
1 20.5222 32.4986 41.9076
1 22.4377 34.6189 41.8999
1 24.378 32.6548 41.899
1 26.4131 34.7008 41.8912
1 28.4638 32.598 41.8904
1 30.5346 34.6369 41.8827
1 32.5909 32.5909 41.8824
1 34.6671 34.6669 41.8757
1 36.702 32.578 41.876
1 38.56 34.516 41.8707
1 24.4827 36.6694 41.8924
1 26.5946 38.5952 41.8852
1 28.5142 36.7189 41.8836
1 30.555 38.7102 41.8768
1 32.5785 36.702 41.8759
1 34.5167 38.5598 41.8706
1 36.6151 36.6146 41.8699
1 32.5911 30.5321 43.8665
1 32.6273 26.4141 43.8757
1 30.5778 20.4175 43.8941
1 38.7088 28.5427 43.8604
1 36.7338 30.5492 43.8592
1 26.4216 24.3602 43.8933
1 36.7719 26.4236 43.8683
1 22.3462 32.6827 43.8847
1 24.3595 26.4225 43.8932
1 32.6816 22.3462 43.885
1 26.4141 32.628 43.8755
1 24.3516 34.7555 43.8762
1 22.2932 28.4194 43.8938
1 20.4174 30.5792 43.8937
1 30.5321 32.5914 43.8665
1 28.4761 34.6647 43.867
1 28.4183 22.2937 43.894
1 30.5438 24.3842 43.8846
1 34.6526 32.6046 43.8586
1 32.6048 34.6527 43.8585
1 26.4207 28.4836 43.8841
1 24.384 30.5447 43.8843
1 38.6899 32.5761 43.8525
1 36.7355 34.681 43.8515
1 28.4829 26.4212 43.8841
1 22.5042 24.4787 43.9017
1 26.4241 36.7726 43.8681
1 30.5417 28.4714 43.8752
1 28.4712 30.5421 43.8751
1 30.5497 36.7341 43.859
1 28.5434 38.7093 43.8601
1 24.4776 22.5051 43.9018
1 34.7547 24.3514 43.8765
1 34.6815 36.7353 43.8514
1 32.5768 38.6899 43.8523
1 34.6643 28.4759 43.8671
1 26.4178 22.2984 45.8805
1 28.6689 20.4839 45.8802
1 30.5618 22.4031 45.8711
1 32.5074 20.5327 45.8715
1 34.627 22.4488 45.8625
1 22.2977 26.419 45.8803
1 24.3591 24.3601 45.8802
1 26.4279 26.4287 45.8706
1 28.4588 24.3464 45.8709
1 30.549 26.4205 45.8613
1 32.6626 24.388 45.8618
1 34.708 26.423 45.8528
1 36.6765 24.4939 45.8539
1 38.6009 26.6059 45.8455
1 20.4834 28.6703 45.8799
1 22.4028 30.563 45.8708
1 24.3458 28.4598 45.8708
1 26.4202 30.5497 45.8612
1 28.4847 28.4852 45.8611
1 30.5377 30.538 45.8519
1 32.6053 28.4727 45.8521
1 34.6432 30.5429 45.8435
1 36.7246 28.5239 45.8442
1 38.7149 30.5637 45.8364
1 20.5327 32.5087 45.8711
1 22.4489 34.6281 45.8622
1 24.3879 32.6635 45.8615
1 26.4231 34.7087 45.8526
1 28.4726 32.6058 45.852
1 30.5431 34.6434 45.8433
1 32.5985 32.5985 45.8431
1 34.6738 34.6737 45.8352
1 36.7072 32.5857 45.8355
1 38.5642 34.5224 45.829
1 24.4943 36.6774 45.8536
1 26.6065 38.6017 45.8453
1 28.5243 36.7251 45.844
1 30.5644 38.7151 45.8363
1 32.5861 36.7072 45.8355
1 34.5229 38.5641 45.8288
1 36.6205 36.6201 45.8283
1 32.5991 30.5409 47.8291
1 32.6359 26.4239 47.8386
1 30.5881 20.4276 47.858
1 38.7148 28.5536 47.822
1 36.74 30.5584 47.821
1 26.4308 24.3694 47.8575
1 36.7798 26.4345 47.8305
1 22.3568 32.6925 47.8481
1 24.3686 26.4319 47.8575
1 32.6913 22.3569 47.8484
1 26.4237 32.6367 47.8385
1 24.3624 34.7646 47.839
1 22.3027 28.4292 47.8579
1 20.4273 30.5896 47.8577
1 30.5407 32.5994 47.829
1 28.4855 34.6724 47.8294
1 28.428 22.3033 47.8581
1 30.5531 24.394 47.848
1 34.6599 32.6128 47.8205
1 32.613 34.66 47.8205
1 26.4299 28.4927 47.8477
1 24.3936 30.5541 47.8479
1 38.6948 32.5845 47.8135
1 36.742 34.6885 47.8127
1 28.4919 26.4305 47.8477
1 22.513 24.4879 47.8665
1 26.4349 36.7806 47.8302
1 30.5504 28.4806 47.8382
1 28.4802 30.5509 47.8382
1 30.5587 36.7403 47.8208
1 28.5542 38.7153 47.8218
1 24.4866 22.5141 47.8665
1 34.7636 24.3623 47.8393
1 34.6889 36.7418 47.8126
1 32.585 38.6948 47.8134
1 34.6719 28.4854 47.8296
1 26.4274 22.3078 49.8445
1 28.679 20.4935 49.8441
1 30.5716 22.4132 49.8349
1 32.5177 20.5436 49.8353
1 34.6364 22.4601 49.8262
1 22.3069 26.4287 49.8445
1 24.3685 24.3696 49.8444
1 26.4373 26.4381 49.8346
1 28.4683 24.356 49.8349
1 30.558 26.4301 49.8252
1 32.6718 24.3983 49.8255
1 34.7163 26.4333 49.8165
1 36.6849 24.5055 49.8174
1 38.6081 26.6178 49.8089
1 20.493 28.6806 49.844
1 22.4129 30.5728 49.8348
1 24.3554 28.4693 49.8348
1 26.4297 30.5588 49.8251
1 28.4938 28.4945 49.825
1 30.5464 30.5468 49.8157
1 32.6137 28.482 49.8159
1 34.6504 30.5519 49.8071
1 36.7316 28.5342 49.8077
1 38.7207 30.5735 49.7996
1 20.5435 32.5191 49.8351
1 22.4602 34.6376 49.8259
1 24.3982 32.6728 49.8253
1 26.4333 34.7172 49.8163
1 28.4818 32.6142 49.8159
1 30.5519 34.6508 49.807
1 32.6067 32.6069 49.8069
1 34.6814 34.6813 49.7987
1 36.7134 32.5939 49.7989
1 38.5696 34.5294 49.792
1 24.5057 36.6859 49.8171
1 26.6182 38.6089 49.8086
1 28.5344 36.7322 49.8075
1 30.574 38.7211 49.7995
1 32.5942 36.7135 49.7989
1 34.53 38.5695 49.7919
1 36.6269 36.6266 49.7914
1 32.6073 30.5496 51.794
1 32.6446 26.4336 51.8032
1 30.5982 20.4378 51.8218
1 38.7214 28.5642 51.7868
1 36.7467 30.5676 51.786
1 26.4402 24.3788 51.8215
1 36.788 26.4452 51.7952
1 22.3673 32.7021 51.8125
1 24.3779 26.4413 51.8215
1 32.7008 22.3674 51.8126
1 26.4333 32.6454 51.8031
1 24.373 34.7736 51.8035
1 22.3122 28.439 51.822
1 20.4375 30.5998 51.8218
1 30.5495 32.6077 51.794
1 28.4948 34.6803 51.7943
1 28.4376 22.3129 51.822
1 30.5623 24.4038 51.8123
1 34.6674 32.6213 51.7856
1 32.6213 34.6676 51.7855
1 26.4392 28.502 51.812
1 24.4033 30.5635 51.8122
1 38.7004 32.5929 51.7785
1 36.7489 34.6963 51.7778
1 28.501 26.4399 51.812
1 22.5222 24.4973 51.8303
1 26.4454 36.7888 51.7949
1 30.5591 28.4897 51.8029
1 28.4893 30.5598 51.8028
1 30.5678 36.747 51.7859
1 28.5647 38.7219 51.7866
1 24.4959 22.5234 51.8303
1 34.7725 24.373 51.8037
1 34.6966 36.7489 51.7777
1 32.5934 38.7006 51.7784
1 34.6797 28.4948 51.7944
1 26.4366 22.3169 53.8082
1 28.6885 20.503 53.8077
1 30.5807 22.423 53.7992
1 32.5272 20.554 53.7996
1 34.6454 22.4708 53.791
1 22.3161 26.4381 53.8083
1 24.3776 24.3788 53.8081
1 26.4463 26.4472 53.7989
1 28.4773 24.3653 53.7992
1 30.5666 26.4393 53.7902
1 32.6806 24.4082 53.7905
1 34.7245 26.4431 53.782
1 36.6931 24.5163 53.7828
1 38.6153 26.6288 53.7748
1 20.5025 28.6903 53.8079
1 22.4227 30.5822 53.7993
1 24.3647 28.4784 53.7992
1 26.4389 30.5675 53.7902
1 28.5027 28.5034 53.79
1 30.5549 30.5554 53.7814
1 32.6217 28.491 53.7815
1 34.6576 30.5606 53.7733
1 36.7387 28.5439 53.7738
1 38.7269 30.5829 53.7662
1 20.554 32.5288 53.7996
1 22.471 34.6467 53.791
1 24.408 32.6817 53.7904
1 26.4431 34.7254 53.782
1 28.4908 32.6224 53.7815
1 30.5605 34.6581 53.7732
1 32.6147 32.615 53.7731
1 34.6888 34.6888 53.7653
1 36.7198 32.602 53.7655
1 38.5754 34.5367 53.7589
1 24.5166 36.6942 53.7826
1 26.6292 38.6161 53.7745
1 28.5441 36.7393 53.7736
1 30.5833 38.7273 53.766
1 32.6023 36.72 53.7655
1 34.5371 38.5753 53.7589
1 36.6335 36.6332 53.7584
1 32.6149 30.5579 55.7609
1 32.6526 26.4425 55.7691
1 30.6073 20.4474 55.7859
1 38.7278 28.574 55.7543
1 36.7532 30.5762 55.7536
1 26.4489 24.3876 55.7856
1 36.7955 26.4549 55.7618
1 22.377 32.711 55.7777
1 24.3867 26.45 55.7857
1 32.7095 22.377 55.7776
1 26.4423 32.6536 55.7691
1 24.3828 34.782 55.7696
1 22.3214 28.4479 55.7862
1 20.4472 30.609 55.7861
1 30.5577 32.6154 55.7609
1 28.5036 34.6879 55.7612
1 28.4464 22.3219 55.7861
1 30.5708 24.4128 55.7773
1 34.6746 32.6292 55.7533
1 32.6292 34.6748 55.7533
1 26.448 28.5105 55.7772
1 24.4125 30.572 55.7774
1 38.7061 32.6009 55.7468
1 36.7556 34.7037 55.7461
1 28.5096 26.4487 55.7772
1 22.531 24.506 55.7936
1 26.4551 36.7965 55.7618
1 30.5673 28.4983 55.7689
1 28.4978 30.568 55.7689
1 30.5764 36.7536 55.7535
1 28.5745 38.7283 55.7542
1 24.5047 22.5321 55.7936
1 34.7807 24.3827 55.7696
1 34.7039 36.7557 55.7461
1 32.6012 38.7062 55.7467
1 34.6871 28.5036 55.7612
1 26.445 22.3253 57.772
1 28.6971 20.5117 57.7716
1 30.589 22.4319 57.7641
1 32.5355 20.5632 57.7645
1 34.6533 22.4802 57.7569
1 22.3245 26.4464 57.772
1 24.386 24.3871 57.7719
1 26.4545 26.4555 57.7639
1 28.4853 24.3737 57.7641
1 30.5744 26.4475 57.7562
1 32.6884 24.417 57.7565
1 34.7318 26.4518 57.7491
1 36.7005 24.5258 57.7497
1 38.6219 26.6384 57.7426
1 20.5112 28.6989 57.7717
1 22.4316 30.5905 57.7643
1 24.3731 28.4865 57.7642
1 26.4472 30.5754 57.7563
1 28.5107 28.5114 57.7562
1 30.5626 30.5631 57.7486
1 32.6291 28.499 57.7488
1 34.6643 30.5684 57.7415
1 36.7452 28.5526 57.7419
1 38.7327 30.5911 57.7352
1 20.5634 32.5373 57.7646
1 22.4806 34.6547 57.7572
1 24.417 32.6896 57.7566
1 26.452 34.7328 57.7492
1 28.4988 32.6298 57.7488
1 30.5684 34.6647 57.7416
1 32.6221 32.6223 57.7414
1 34.6957 34.6957 57.7346
1 36.7258 32.6094 57.7348
1 38.5808 34.5433 57.7289
1 24.5262 36.7016 57.7499
1 26.639 38.6227 57.7429
1 28.5529 36.7458 57.742
1 30.5915 38.733 57.7353
1 32.6096 36.726 57.7348
1 34.5436 38.5808 57.7289
1 36.6395 36.6394 57.7285
1 32.6216 30.565 59.7295
1 32.6596 26.4502 59.7363
1 30.615 20.4558 59.7505
1 38.7334 28.5822 59.7238
1 36.7589 30.5835 59.7233
1 26.4565 24.3953 59.7502
1 36.8022 26.4631 59.73
1 22.3855 32.7185 59.7437
1 24.3944 26.4577 59.7503
1 32.717 22.3854 59.7434
1 26.4501 32.6606 59.7365
1 24.3913 34.789 59.737
1 22.3293 28.4555 59.7507
1 20.4557 30.6168 59.7507
1 30.5648 32.6221 59.7295
1 28.5112 34.6943 59.7299
1 28.454 22.3298 59.7506
1 30.5781 24.4207 59.7432
1 34.6809 32.636 59.7231
1 32.6361 34.6811 59.7231
1 26.4557 28.5179 59.7431
1 24.4204 30.5793 59.7434
1 38.7112 32.6077 59.7175
1 36.7616 34.7102 59.7171
1 28.517 26.4563 59.7431
1 22.5388 24.5138 59.7569
1 26.4635 36.8031 59.7305
1 30.5744 28.5056 59.7362
1 28.5052 30.5751 59.7362
1 30.5838 36.7593 59.7234
1 28.5828 38.7339 59.7241
1 24.5124 22.5398 59.7569
1 34.7878 24.3911 59.7366
1 34.7104 36.7616 59.7171
1 32.6081 38.7113 59.7177
1 34.6936 28.5111 59.7297
1 26.452 22.3324 61.736
1 28.7042 20.5191 61.7357
1 30.5958 22.4394 61.7297
1 32.5424 20.5711 61.7299
1 34.6599 22.4881 61.7238
1 22.3317 26.4534 61.7361
1 24.3929 24.3941 61.7359
1 26.4615 26.4623 61.7295
1 28.492 24.3808 61.7296
1 30.5809 26.4544 61.7233
1 32.6949 24.4243 61.7234
1 34.738 26.459 61.7175