64000
Atoms. Timestep: 0
1 0 0 0
1 2.04 2.04 0
1 2.04 0 2.04
1 0 2.04 2.04
1 4.08 0 0
1 6.12 2.04 0
1 6.12 0 2.04
1 4.08 2.04 2.04
1 8.16 0 0
1 10.2 2.04 0
1 10.2 0 2.04
1 8.16 2.04 2.04
1 12.24 0 0
1 14.28 2.04 0
1 14.28 0 2.04
1 12.24 2.04 2.04
1 16.32 0 0
1 18.36 2.04 0
1 18.36 0 2.04
1 16.32 2.04 2.04
1 20.4 0 0
1 22.44 2.04 0
1 22.44 0 2.04
1 20.4 2.04 2.04
1 24.48 0 0
1 26.52 2.04 0
1 26.52 0 2.04
1 24.48 2.04 2.04
1 28.56 0 0
1 30.6 2.04 0
1 30.6 0 2.04
1 28.56 2.04 2.04
1 32.64 0 0
1 34.68 2.04 0
1 34.68 0 2.04
1 32.64 2.04 2.04
1 36.72 0 0
1 38.76 2.04 0
1 38.76 0 2.04
1 36.72 2.04 2.04
1 40.8 0 0
1 42.84 2.04 0
1 42.84 0 2.04
1 40.8 2.04 2.04
1 44.88 0 0
1 46.92 2.04 0
1 46.92 0 2.04
1 44.88 2.04 2.04
1 48.96 0 0
1 51 2.04 0
1 51 0 2.04
1 48.96 2.04 2.04
1 53.04 0 0
1 55.08 2.04 0
1 55.08 0 2.04
1 53.04 2.04 2.04
1 57.12 0 0
1 59.16 2.04 0
1 59.16 0 2.04
1 57.12 2.04 2.04
1 61.2 0 0
1 63.24 2.04 0
1 63.24 0 2.04
1 61.2 2.04 2.04
1 65.28 0 0
1 67.32 2.04 0
1 67.32 0 2.04
1 65.28 2.04 2.04
1 69.36 0 0
1 71.4 2.04 0
1 71.4 0 2.04
1 69.36 2.04 2.04
1 73.44 0 0
1 75.48 2.04 0
1 75.48 0 2.04
1 73.44 2.04 2.04
1 77.52 0 0
1 79.56 2.04 0
1 79.56 0 2.04
1 77.52 2.04 2.04
1 0 4.08 0
1 2.04 6.12 0
1 2.04 4.08 2.04
1 0 6.12 2.04
1 4.08 4.08 0
1 6.12 6.12 0
1 6.12 4.08 2.04
1 4.08 6.12 2.04
1 8.16 4.08 0
1 10.2 6.12 0
1 10.2 4.08 2.04
1 8.16 6.12 2.04
1 12.24 4.08 0
1 14.28 6.12 0
1 14.28 4.08 2.04
1 12.24 6.12 2.04
1 16.32 4.08 0
1 18.36 6.12 0
1 18.36 4.08 2.04
1 16.32 6.12 2.04
1 20.4 4.08 0
1 22.44 6.12 0
1 22.44 4.08 2.04
1 20.4 6.12 2.04
1 24.48 4.08 0
1 26.52 6.12 0
1 26.52 4.08 2.04
1 24.48 6.12 2.04
1 28.56 4.08 0
1 30.6 6.12 0
1 30.6 4.08 2.04
1 28.56 6.12 2.04
1 32.64 4.08 0
1 34.68 6.12 0
1 34.68 4.08 2.04
1 32.64 6.12 2.04
1 36.72 4.08 0
1 38.76 6.12 0
1 38.76 4.08 2.04
1 36.72 6.12 2.04
1 40.8 4.08 0
1 42.84 6.12 0
1 42.84 4.08 2.04
1 40.8 6.12 2.04
1 44.88 4.08 0
1 46.92 6.12 0
1 46.92 4.08 2.04
1 44.88 6.12 2.04
1 48.96 4.08 0
1 51 6.12 0
1 51 4.08 2.04
1 48.96 6.12 2.04
1 53.04 4.08 0
1 55.08 6.12 0
1 55.08 4.08 2.04
1 53.04 6.12 2.04
1 57.12 4.08 0
1 59.16 6.12 0
1 59.16 4.08 2.04
1 57.12 6.12 2.04
1 61.2 4.08 0
1 63.24 6.12 0
1 63.24 4.08 2.04
1 61.2 6.12 2.04
1 65.28 4.08 0
1 67.32 6.12 0
1 67.32 4.08 2.04
1 65.28 6.12 2.04
1 69.36 4.08 0
1 71.4 6.12 0
1 71.4 4.08 2.04
1 69.36 6.12 2.04
1 73.44 4.08 0
1 75.48 6.12 0
1 75.48 4.08 2.04
1 73.44 6.12 2.04
1 77.52 4.08 0
1 79.56 6.12 0
1 79.56 4.08 2.04
1 77.52 6.12 2.04
1 0 8.16 0
1 2.04 10.2 0
1 2.04 8.16 2.04
1 0 10.2 2.04
1 4.08 8.16 0
1 6.12 10.2 0
1 6.12 8.16 2.04
1 4.08 10.2 2.04
1 8.16 8.16 0
1 10.2 10.2 0
1 10.2 8.16 2.04
1 8.16 10.2 2.04
1 12.24 8.16 0
1 14.28 10.2 0
1 14.28 8.16 2.04
1 12.24 10.2 2.04
1 16.32 8.16 0
1 18.36 10.2 0
1 18.36 8.16 2.04
1 16.32 10.2 2.04
1 20.4 8.16 0
1 22.44 10.2 0
1 22.44 8.16 2.04
1 20.4 10.2 2.04
1 24.48 8.16 0
1 26.52 10.2 0
1 26.52 8.16 2.04
1 24.48 10.2 2.04
1 28.56 8.16 0
1 30.6 10.2 0
1 30.6 8.16 2.04
1 28.56 10.2 2.04
1 32.64 8.16 0
1 34.68 10.2 0
1 34.68 8.16 2.04
1 32.64 10.2 2.04
1 36.72 8.16 0
1 38.76 10.2 0
1 38.76 8.16 2.04
1 36.72 10.2 2.04
1 40.8 8.16 0
1 42.84 10.2 0
1 42.84 8.16 2.04
1 40.8 10.2 2.04
1 44.88 8.16 0
1 46.92 10.2 0
1 46.92 8.16 2.04
1 44.88 10.2 2.04
1 48.96 8.16 0
1 51 10.2 0
1 51 8.16 2.04
1 48.96 10.2 2.04
1 53.04 8.16 0
1 55.08 10.2 0
1 55.08 8.16 2.04
1 53.04 10.2 2.04
1 57.12 8.16 0
1 59.16 10.2 0
1 59.16 8.16 2.04
1 57.12 10.2 2.04
1 61.2 8.16 0
1 63.24 10.2 0
1 63.24 8.16 2.04
1 61.2 10.2 2.04
1 65.28 8.16 0
1 67.32 10.2 0
1 67.32 8.16 2.04
1 65.28 10.2 2.04
1 69.36 8.16 0
1 71.4 10.2 0
1 71.4 8.16 2.04
1 69.36 10.2 2.04
1 73.44 8.16 0
1 75.48 10.2 0
1 75.48 8.16 2.04
1 73.44 10.2 2.04
1 77.52 8.16 0
1 79.56 10.2 0
1 79.56 8.16 2.04
1 77.52 10.2 2.04
1 0 12.24 0
1 2.04 14.28 0
1 2.04 12.24 2.04
1 0 14.28 2.04
1 4.08 12.24 0
1 6.12 14.28 0
1 6.12 12.24 2.04
1 4.08 14.28 2.04
1 8.16 12.24 0
1 10.2 14.28 0
1 10.2 12.24 2.04
1 8.16 14.28 2.04
1 12.24 12.24 0
1 14.28 14.28 0
1 14.28 12.24 2.04
1 12.24 14.28 2.04
1 16.32 12.24 0
1 18.36 14.28 0
1 18.36 12.24 2.04
1 16.32 14.28 2.04
1 20.4 12.24 0
1 22.44 14.28 0
1 22.44 12.24 2.04
1 20.4 14.28 2.04
1 24.48 12.24 0
1 26.52 14.28 0
1 26.52 12.24 2.04
1 24.48 14.28 2.04
1 28.56 12.24 0
1 30.6 14.28 0
1 30.6 12.24 2.04
1 28.56 14.28 2.04
1 32.64 12.24 0
1 34.68 14.28 0
1 34.68 12.24 2.04
1 32.64 14.28 2.04
1 36.72 12.24 0
1 38.76 14.28 0
1 38.76 12.24 2.04
1 36.72 14.28 2.04
1 40.8 12.24 0
1 42.84 14.28 0
1 42.84 12.24 2.04
1 40.8 14.28 2.04
1 44.88 12.24 0
1 46.92 14.28 0
1 46.92 12.24 2.04
1 44.88 14.28 2.04
1 48.96 12.24 0
1 51 14.28 0
1 51 12.24 2.04
1 48.96 14.28 2.04
1 53.04 12.24 0
1 55.08 14.28 0
1 55.08 12.24 2.04
1 53.04 14.28 2.04
1 57.12 12.24 0
1 59.16 14.28 0
1 59.16 12.24 2.04
1 57.12 14.28 2.04
1 61.2 12.24 0
1 63.24 14.28 0
1 63.24 12.24 2.04
1 61.2 14.28 2.04
1 65.28 12.24 0
1 67.32 14.28 0
1 67.32 12.24 2.04
1 65.28 14.28 2.04
1 69.36 12.24 0
1 71.4 14.28 0
1 71.4 12.24 2.04
1 69.36 14.28 2.04
1 73.44 12.24 0
1 75.48 14.28 0
1 75.48 12.24 2.04
1 73.44 14.28 2.04
1 77.52 12.24 0
1 79.56 14.28 0
1 79.56 12.24 2.04
1 77.52 14.28 2.04
1 0 16.32 0
1 2.04 18.36 0
1 2.04 16.32 2.04
1 0 18.36 2.04
1 4.08 16.32 0
1 6.12 18.36 0
1 6.12 16.32 2.04
1 4.08 18.36 2.04
1 8.16 16.32 0
1 10.2 18.36 0
1 10.2 16.32 2.04
1 8.16 18.36 2.04
1 12.24 16.32 0
1 14.28 18.36 0
1 14.28 16.32 2.04
1 12.24 18.36 2.04
1 16.32 16.32 0
1 18.36 18.36 0
1 18.36 16.32 2.04
1 16.32 18.36 2.04
1 20.4 16.32 0
1 22.44 18.36 0
1 22.44 16.32 2.04
1 20.4 18.36 2.04
1 24.48 16.32 0
1 26.52 18.36 0
1 26.52 16.32 2.04
1 24.48 18.36 2.04
1 28.56 16.32 0
1 30.6 18.36 0
1 30.6 16.32 2.04
1 28.56 18.36 2.04
1 32.64 16.32 0
1 34.68 18.36 0
1 34.68 16.32 2.04
1 32.64 18.36 2.04
1 36.72 16.32 0
1 38.76 18.36 0
1 38.76 16.32 2.04
1 36.72 18.36 2.04
1 40.8 16.32 0
1 42.84 18.36 0
1 42.84 16.32 2.04
1 40.8 18.36 2.04
1 44.88 16.32 0
1 46.92 18.36 0
1 46.92 16.32 2.04
1 44.88 18.36 2.04
1 48.96 16.32 0
1 51 18.36 0
1 51 16.32 2.04
1 48.96 18.36 2.04
1 53.04 16.32 0
1 55.08 18.36 0
1 55.08 16.32 2.04
1 53.04 18.36 2.04
1 57.12 16.32 0
1 59.16 18.36 0
1 59.16 16.32 2.04
1 57.12 18.36 2.04
1 61.2 16.32 0
1 63.24 18.36 0
1 63.24 16.32 2.04
1 61.2 18.36 2.04
1 65.28 16.32 0
1 67.32 18.36 0
1 67.32 16.32 2.04
1 65.28 18.36 2.04
1 69.36 16.32 0
1 71.4 18.36 0
1 71.4 16.32 2.04
1 69.36 18.36 2.04
1 73.44 16.32 0
1 75.48 18.36 0
1 75.48 16.32 2.04
1 73.44 18.36 2.04
1 77.52 16.32 0
1 79.56 18.36 0
1 79.56 16.32 2.04
1 77.52 18.36 2.04
1 0 20.4 0
1 2.04 22.44 0
1 2.04 20.4 2.04
1 0 22.44 2.04
1 4.08 20.4 0
1 6.12 22.44 0
1 6.12 20.4 2.04
1 4.08 22.44 2.04
1 8.16 20.4 0
1 10.2 22.44 0
1 10.2 20.4 2.04
1 8.16 22.44 2.04
1 12.24 20.4 0
1 14.28 22.44 0
1 14.28 20.4 2.04
1 12.24 22.44 2.04
1 16.32 20.4 0
1 18.36 22.44 0
1 18.36 20.4 2.04
1 16.32 22.44 2.04
1 20.4 20.4 0
1 22.44 22.44 0
1 22.44 20.4 2.04
1 20.4 22.44 2.04
1 24.48 20.4 0
1 26.52 22.44 0
1 26.52 20.4 2.04
1 24.48 22.44 2.04
1 28.56 20.4 0
1 30.6 22.44 0
1 30.6 20.4 2.04
1 28.56 22.44 2.04
1 32.64 20.4 0
1 34.68 22.44 0
1 34.68 20.4 2.04
1 32.64 22.44 2.04
1 36.72 20.4 0
1 38.76 22.44 0
1 38.76 20.4 2.04
1 36.72 22.44 2.04
1 40.8 20.4 0
1 42.84 22.44 0
1 42.84 20.4 2.04
1 40.8 22.44 2.04
1 44.88 20.4 0
1 46.92 22.44 0
1 46.92 20.4 2.04
1 44.88 22.44 2.04
1 48.96 20.4 0
1 51 22.44 0
1 51 20.4 2.04
1 48.96 22.44 2.04
1 53.04 20.4 0
1 55.08 22.44 0
1 55.08 20.4 2.04
1 53.04 22.44 2.04
1 57.12 20.4 0
1 59.16 22.44 0
1 59.16 20.4 2.04
1 57.12 22.44 2.04
1 61.2 20.4 0
1 63.24 22.44 0
1 63.24 20.4 2.04
1 61.2 22.44 2.04
1 65.28 20.4 0
1 67.32 22.44 0
1 67.32 20.4 2.04
1 65.28 22.44 2.04
1 69.36 20.4 0
1 71.4 22.44 0
1 71.4 20.4 2.04
1 69.36 22.44 2.04
1 73.44 20.4 0
1 75.48 22.44 0
1 75.48 20.4 2.04
1 73.44 22.44 2.04
1 77.52 20.4 0
1 79.56 22.44 0
1 79.56 20.4 2.04
1 77.52 22.44 2.04
1 0 24.48 0
1 2.04 26.52 0
1 2.04 24.48 2.04
1 0 26.52 2.04
1 4.08 24.48 0
1 6.12 26.52 0
1 6.12 24.48 2.04
1 4.08 26.52 2.04
1 8.16 24.48 0
1 10.2 26.52 0
1 10.2 24.48 2.04
1 8.16 26.52 2.04
1 12.24 24.48 0
1 14.28 26.52 0
1 14.28 24.48 2.04
1 12.24 26.52 2.04
1 16.32 24.48 0
1 18.36 26.52 0
1 18.36 24.48 2.04
1 16.32 26.52 2.04
1 20.4 24.48 0
1 22.44 26.52 0
1 22.44 24.48 2.04
1 20.4 26.52 2.04
1 24.48 24.48 0
1 26.52 26.52 0
1 26.52 24.48 2.04
1 24.48 26.52 2.04
1 28.56 24.48 0
1 30.6 26.52 0
1 30.6 24.48 2.04
1 28.56 26.52 2.04
1 32.64 24.48 0
1 34.68 26.52 0
1 34.68 24.48 2.04
1 32.64 26.52 2.04
1 36.72 24.48 0
1 38.76 26.52 0
1 38.76 24.48 2.04
1 36.72 26.52 2.04
1 40.8 24.48 0
1 42.84 26.52 0
1 42.84 24.48 2.04
1 40.8 26.52 2.04
1 44.88 24.48 0
1 46.92 26.52 0
1 46.92 24.48 2.04
1 44.88 26.52 2.04
1 48.96 24.48 0
1 51 26.52 0
1 51 24.48 2.04
1 48.96 26.52 2.04
1 53.04 24.48 0
1 55.08 26.52 0
1 55.08 24.48 2.04
1 53.04 26.52 2.04
1 57.12 24.48 0
1 59.16 26.52 0
1 59.16 24.48 2.04
1 57.12 26.52 2.04
1 61.2 24.48 0
1 63.24 26.52 0
1 63.24 24.48 2.04
1 61.2 26.52 2.04
1 65.28 24.48 0
1 67.32 26.52 0
1 67.32 24.48 2.04
1 65.28 26.52 2.04
1 69.36 24.48 0
1 71.4 26.52 0
1 71.4 24.48 2.04
1 69.36 26.52 2.04
1 73.44 24.48 0
1 75.48 26.52 0
1 75.48 24.48 2.04
1 73.44 26.52 2.04
1 77.52 24.48 0
1 79.56 26.52 0
1 79.56 24.48 2.04
1 77.52 26.52 2.04
1 0 28.56 0
1 2.04 30.6 0
1 2.04 28.56 2.04
1 0 30.6 2.04
1 4.08 28.56 0
1 6.12 30.6 0
1 6.12 28.56 2.04
1 4.08 30.6 2.04
1 8.16 28.56 0
1 10.2 30.6 0
1 10.2 28.56 2.04
1 8.16 30.6 2.04
1 12.24 28.56 0
1 14.28 30.6 0
1 14.28 28.56 2.04
1 12.24 30.6 2.04
1 16.32 28.56 0
1 18.36 30.6 0
1 18.36 28.56 2.04
1 16.32 30.6 2.04
1 20.4 28.56 0
1 22.44 30.6 0
1 22.44 28.56 2.04
1 20.4 30.6 2.04
1 24.48 28.56 0
1 26.52 30.6 0
1 26.52 28.56 2.04
1 24.48 30.6 2.04
1 28.56 28.56 0
1 30.6 30.6 0
1 30.6 28.56 2.04
1 28.56 30.6 2.04
1 32.64 28.56 0
1 34.68 30.6 0
1 34.68 28.56 2.04
1 32.64 30.6 2.04
1 36.72 28.56 0
1 38.76 30.6 0
1 38.76 28.56 2.04
1 36.72 30.6 2.04
1 40.8 28.56 0
1 42.84 30.6 0
1 42.84 28.56 2.04
1 40.8 30.6 2.04
1 44.88 28.56 0
1 46.92 30.6 0
1 46.92 28.56 2.04
1 44.88 30.6 2.04
1 48.96 28.56 0
1 51 30.6 0
1 51 28.56 2.04
1 48.96 30.6 2.04
1 53.04 28.56 0
1 55.08 30.6 0
1 55.08 28.56 2.04
1 53.04 30.6 2.04
1 57.12 28.56 0
1 59.16 30.6 0
1 59.16 28.56 2.04
1 57.12 30.6 2.04
1 61.2 28.56 0
1 63.24 30.6 0
1 63.24 28.56 2.04
1 61.2 30.6 2.04
1 65.28 28.56 0
1 67.32 30.6 0
1 67.32 28.56 2.04
1 65.28 30.6 2.04
1 69.36 28.56 0
1 71.4 30.6 0
1 71.4 28.56 2.04
1 69.36 30.6 2.04
1 73.44 28.56 0
1 75.48 30.6 0
1 75.48 28.56 2.04
1 73.44 30.6 2.04
1 77.52 28.56 0
1 79.56 30.6 0
1 79.56 28.56 2.04
1 77.52 30.6 2.04
1 0 32.64 0
1 2.04 34.68 0
1 2.04 32.64 2.04
1 0 34.68 2.04
1 4.08 32.64 0
1 6.12 34.68 0
1 6.12 32.64 2.04
1 4.08 34.68 2.04
1 8.16 32.64 0
1 10.2 34.68 0
1 10.2 32.64 2.04
1 8.16 34.68 2.04
1 12.24 32.64 0
1 14.28 34.68 0
1 14.28 32.64 2.04
1 12.24 34.68 2.04
1 16.32 32.64 0
1 18.36 34.68 0
1 18.36 32.64 2.04
1 16.32 34.68 2.04
1 20.4 32.64 0
1 22.44 34.68 0
1 22.44 32.64 2.04
1 20.4 34.68 2.04
1 24.48 32.64 0
1 26.52 34.68 0
1 26.52 32.64 2.04
1 24.48 34.68 2.04
1 28.56 32.64 0
1 30.6 34.68 0
1 30.6 32.64 2.04
1 28.56 34.68 2.04
1 32.64 32.64 0
1 34.68 34.68 0
1 34.68 32.64 2.04
1 32.64 34.68 2.04
1 36.72 32.64 0
1 38.76 34.68 0
1 38.76 32.64 2.04
1 36.72 34.68 2.04
1 40.8 32.64 0
1 42.84 34.68 0
1 42.84 32.64 2.04
1 40.8 34.68 2.04
1 44.88 32.64 0
1 46.92 34.68 0
1 46.92 32.64 2.04
1 44.88 34.68 2.04
1 48.96 32.64 0
1 51 34.68 0
1 51 32.64 2.04
1 48.96 34.68 2.04
1 53.04 32.64 0
1 55.08 34.68 0
1 55.08 32.64 2.04
1 53.04 34.68 2.04
1 57.12 32.64 0
1 59.16 34.68 0
1 59.16 32.64 2.04
1 57.12 34.68 2.04
1 61.2 32.64 0
1 63.24 34.68 0
1 63.24 32.64 2.04
1 61.2 34.68 2.04
1 65.28 32.64 0
1 67.32 34.68 0
1 67.32 32.64 2.04
1 65.28 34.68 2.04
1 69.36 32.64 0
1 71.4 34.68 0
1 71.4 32.64 2.04
1 69.36 34.68 2.04
1 73.44 32.64 0
1 75.48 34.68 0
1 75.48 32.64 2.04
1 73.44 34.68 2.04
1 77.52 32.64 0
1 79.56 34.68 0
1 79.56 32.64 2.04
1 77.52 34.68 2.04
1 0 36.72 0
1 2.04 38.76 0
1 2.04 36.72 2.04
1 0 38.76 2.04
1 4.08 36.72 0
1 6.12 38.76 0
1 6.12 36.72 2.04
1 4.08 38.76 2.04
1 8.16 36.72 0
1 10.2 38.76 0
1 10.2 36.72 2.04
1 8.16 38.76 2.04
1 12.24 36.72 0
1 14.28 38.76 0
1 14.28 36.72 2.04
1 12.24 38.76 2.04
1 16.32 36.72 0
1 18.36 38.76 0
1 18.36 36.72 2.04
1 16.32 38.76 2.04
1 20.4 36.72 0
1 22.44 38.76 0
1 22.44 36.72 2.04
1 20.4 38.76 2.04
1 24.48 36.72 0
1 26.52 38.76 0
1 26.52 36.72 2.04
1 24.48 38.76 2.04
1 28.56 36.72 0
1 30.6 38.76 0
1 30.6 36.72 2.04
1 28.56 38.76 2.04
1 32.64 36.72 0
1 34.68 38.76 0
1 34.68 36.72 2.04
1 32.64 38.76 2.04
1 36.72 36.72 0
1 38.76 38.76 0
1 38.76 36.72 2.04
1 36.72 38.76 2.04
1 40.8 36.72 0
1 42.84 38.76 0
1 42.84 36.72 2.04
1 40.8 38.76 2.04
1 44.88 36.72 0
1 46.92 38.76 0
1 46.92 36.72 2.04
1 44.88 38.76 2.04
1 48.96 36.72 0
1 51 38.76 0
1 51 36.72 2.04
1 48.96 38.76 2.04
1 53.04 36.72 0
1 55.08 38.76 0
1 55.08 36.72 2.04
1 53.04 38.76 2.04
1 57.12 36.72 0
1 59.16 38.76 0
1 59.16 36.72 2.04
1 57.12 38.76 2.04
1 61.2 36.72 0
1 63.24 38.76 0
1 63.24 36.72 2.04
1 61.2 38.76 2.04
1 65.28 36.72 0
1 67.32 38.76 0
1 67.32 36.72 2.04
1 65.28 38.76 2.04
1 69.36 36.72 0
1 71.4 38.76 0
1 71.4 36.72 2.04
1 69.36 38.76 2.04
1 73.44 36.72 0
1 75.48 38.76 0
1 75.48 36.72 2.04
1 73.44 38.76 2.04
1 77.52 36.72 0
1 79.56 38.76 0
1 79.56 36.72 2.04
1 77.52 38.76 2.04
1 0 40.8 0
1 2.04 42.84 0
1 2.04 40.8 2.04
1 0 42.84 2.04
1 4.08 40.8 0
1 6.12 42.84 0
1 6.12 40.8 2.04
1 4.08 42.84 2.04
1 8.16 40.8 0
1 10.2 42.84 0
1 10.2 40.8 2.04
1 8.16 42.84 2.04
1 12.24 40.8 0
1 14.28 42.84 0
1 14.28 40.8 2.04
1 12.24 42.84 2.04
1 16.32 40.8 0
1 18.36 42.84 0
1 18.36 40.8 2.04
1 16.32 42.84 2.04
1 20.4 40.8 0
1 22.44 42.84 0
1 22.44 40.8 2.04
1 20.4 42.84 2.04
1 24.48 40.8 0
1 26.52 42.84 0
1 26.52 40.8 2.04
1 24.48 42.84 2.04
1 28.56 40.8 0
1 30.6 42.84 0
1 30.6 40.8 2.04
1 28.56 42.84 2.04
1 32.64 40.8 0
1 34.68 42.84 0
1 34.68 40.8 2.04
1 32.64 42.84 2.04
1 36.72 40.8 0
1 38.76 42.84 0
1 38.76 40.8 2.04
1 36.72 42.84 2.04
1 40.8 40.8 0
1 42.84 42.84 0
1 42.84 40.8 2.04
1 40.8 42.84 2.04
1 44.88 40.8 0
1 46.92 42.84 0
1 46.92 40.8 2.04
1 44.88 42.84 2.04
1 48.96 40.8 0
1 51 42.84 0
1 51 40.8 2.04
1 48.96 42.84 2.04
1 53.04 40.8 0
1 55.08 42.84 0
1 55.08 40.8 2.04
1 53.04 42.84 2.04
1 57.12 40.8 0
1 59.16 42.84 0
1 59.16 40.8 2.04
1 57.12 42.84 2.04
1 61.2 40.8 0
1 63.24 42.84 0
1 63.24 40.8 2.04
1 61.2 42.84 2.04
1 65.28 40.8 0
1 67.32 42.84 0
1 67.32 40.8 2.04
1 65.28 42.84 2.04
1 69.36 40.8 0
1 71.4 42.84 0
1 71.4 40.8 2.04
1 69.36 42.84 2.04
1 73.44 40.8 0
1 75.48 42.84 0
1 75.48 40.8 2.04
1 73.44 42.84 2.04
1 77.52 40.8 0
1 79.56 42.84 0
1 79.56 40.8 2.04
1 77.52 42.84 2.04
1 0 44.88 0
1 2.04 46.92 0
1 2.04 44.88 2.04
1 0 46.92 2.04
1 4.08 44.88 0
1 6.12 46.92 0
1 6.12 44.88 2.04
1 4.08 46.92 2.04
1 8.16 44.88 0
1 10.2 46.92 0
1 10.2 44.88 2.04
1 8.16 46.92 2.04
1 12.24 44.88 0
1 14.28 46.92 0
1 14.28 44.88 2.04
1 12.24 46.92 2.04
1 16.32 44.88 0
1 18.36 46.92 0
1 18.36 44.88 2.04
1 16.32 46.92 2.04
1 20.4 44.88 0
1 22.44 46.92 0
1 22.44 44.88 2.04
1 20.4 46.92 2.04
1 24.48 44.88 0
1 26.52 46.92 0
1 26.52 44.88 2.04
1 24.48 46.92 2.04
1 28.56 44.88 0
1 30.6 46.92 0
1 30.6 44.88 2.04
1 28.56 46.92 2.04
1 32.64 44.88 0
1 34.68 46.92 0
1 34.68 44.88 2.04
1 32.64 46.92 2.04
1 36.72 44.88 0
1 38.76 46.92 0
1 38.76 44.88 2.04
1 36.72 46.92 2.04
1 40.8 44.88 0
1 42.84 46.92 0
1 42.84 44.88 2.04
1 40.8 46.92 2.04
1 44.88 44.88 0
1 46.92 46.92 0
1 46.92 44.88 2.04
1 44.88 46.92 2.04
1 48.96 44.88 0
1 51 46.92 0
1 51 44.88 2.04
1 48.96 46.92 2.04
1 53.04 44.88 0
1 55.08 46.92 0
1 55.08 44.88 2.04
1 53.04 46.92 2.04
1 57.12 44.88 0
1 59.16 46.92 0
1 59.16 44.88 2.04
1 57.12 46.92 2.04
1 61.2 44.88 0
1 63.24 46.92 0
1 63.24 44.88 2.04
1 61.2 46.92 2.04
1 65.28 44.88 0
1 67.32 46.92 0
1 67.32 44.88 2.04
1 65.28 46.92 2.04
1 69.36 44.88 0
1 71.4 46.92 0
1 71.4 44.88 2.04
1 69.36 46.92 2.04
1 73.44 44.88 0
1 75.48 46.92 0
1 75.48 44.88 2.04
1 73.44 46.92 2.04
1 77.52 44.88 0
1 79.56 46.92 0
1 79.56 44.88 2.04
1 77.52 46.92 2.04
1 0 48.96 0
1 2.04 51 0
1 2.04 48.96 2.04
1 0 51 2.04
1 4.08 48.96 0
1 6.12 51 0
1 6.12 48.96 2.04
1 4.08 51 2.04
1 8.16 48.96 0
1 10.2 51 0
1 10.2 48.96 2.04
1 8.16 51 2.04
1 12.24 48.96 0
1 14.28 51 0
1 14.28 48.96 2.04
1 12.24 51 2.04
1 16.32 48.96 0
1 18.36 51 0
1 18.36 48.96 2.04
1 16.32 51 2.04
1 20.4 48.96 0
1 22.44 51 0
1 22.44 48.96 2.04
1 20.4 51 2.04
1 24.48 48.96 0
1 26.52 51 0
1 26.52 48.96 2.04
1 24.48 51 2.04
1 28.56 48.96 0
1 30.6 51 0
1 30.6 48.96 2.04
1 28.56 51 2.04
1 32.64 48.96 0
1 34.68 51 0
1 34.68 48.96 2.04
1 32.64 51 2.04
1 36.72 48.96 0
1 38.76 51 0
1 38.76 48.96 2.04
1 36.72 51 2.04
1 40.8 48.96 0
1 42.84 51 0
1 42.84 48.96 2.04
1 40.8 51 2.04
1 44.88 48.96 0
1 46.92 51 0
1 46.92 48.96 2.04
1 44.88 51 2.04
1 48.96 48.96 0
1 51 51 0
1 51 48.96 2.04
1 48.96 51 2.04
1 53.04 48.96 0
1 55.08 51 0
1 55.08 48.96 2.04
1 53.04 51 2.04
1 57.12 48.96 0
1 59.16 51 0
1 59.16 48.96 2.04
1 57.12 51 2.04
1 61.2 48.96 0
1 63.24 51 0
1 63.24 48.96 2.04
1 61.2 51 2.04
1 65.28 48.96 0
1 67.32 51 0
1 67.32 48.96 2.04
1 65.28 51 2.04
1 69.36 48.96 0
1 71.4 51 0
1 71.4 48.96 2.04
1 69.36 51 2.04
1 73.44 48.96 0
1 75.48 51 0
1 75.48 48.96 2.04
1 73.44 51 2.04
1 77.52 48.96 0
1 79.56 51 0
1 79.56 48.96 2.04
1 77.52 51 2.04
1 0 53.04 0
1 2.04 55.08 0
1 2.04 53.04 2.04
1 0 55.08 2.04
1 4.08 53.04 0
1 6.12 55.08 0
1 6.12 53.04 2.04
1 4.08 55.08 2.04
1 8.16 53.04 0
1 10.2 55.08 0
1 10.2 53.04 2.04
1 8.16 55.08 2.04
1 12.24 53.04 0
1 14.28 55.08 0
1 14.28 53.04 2.04
1 12.24 55.08 2.04
1 16.32 53.04 0
1 18.36 55.08 0
1 18.36 53.04 2.04
1 16.32 55.08 2.04
1 20.4 53.04 0
1 22.44 55.08 0
1 22.44 53.04 2.04
1 20.4 55.08 2.04
1 24.48 53.04 0
1 26.52 55.08 0
1 26.52 53.04 2.04
1 24.48 55.08 2.04
1 28.56 53.04 0
1 30.6 55.08 0
1 30.6 53.04 2.04
1 28.56 55.08 2.04
1 32.64 53.04 0
1 34.68 55.08 0
1 34.68 53.04 2.04
1 32.64 55.08 2.04
1 36.72 53.04 0
1 38.76 55.08 0
1 38.76 53.04 2.04
1 36.72 55.08 2.04
1 40.8 53.04 0
1 42.84 55.08 0
1 42.84 53.04 2.04
1 40.8 55.08 2.04
1 44.88 53.04 0
1 46.92 55.08 0
1 46.92 53.04 2.04
1 44.88 55.08 2.04
1 48.96 53.04 0
1 51 55.08 0
1 51 53.04 2.04
1 48.96 55.08 2.04
1 53.04 53.04 0
1 55.08 55.08 0
1 55.08 53.04 2.04
1 53.04 55.08 2.04
1 57.12 53.04 0
1 59.16 55.08 0
1 59.16 53.04 2.04
1 57.12 55.08 2.04
1 61.2 53.04 0
1 63.24 55.08 0
1 63.24 53.04 2.04
1 61.2 55.08 2.04
1 65.28 53.04 0
1 67.32 55.08 0
1 67.32 53.04 2.04
1 65.28 55.08 2.04
1 69.36 53.04 0
1 71.4 55.08 0
1 71.4 53.04 2.04
1 69.36 55.08 2.04
1 73.44 53.04 0
1 75.48 55.08 0
1 75.48 53.04 2.04
1 73.44 55.08 2.04
1 77.52 53.04 0
1 79.56 55.08 0
1 79.56 53.04 2.04
1 77.52 55.08 2.04
1 0 57.12 0
1 2.04 59.16 0
1 2.04 57.12 2.04
1 0 59.16 2.04
1 4.08 57.12 0
1 6.12 59.16 0
1 6.12 57.12 2.04
1 4.08 59.16 2.04
1 8.16 57.12 0
1 10.2 59.16 0
1 10.2 57.12 2.04
1 8.16 59.16 2.04
1 12.24 57.12 0
1 14.28 59.16 0
1 14.28 57.12 2.04
1 12.24 59.16 2.04
1 16.32 57.12 0
1 18.36 59.16 0
1 18.36 57.12 2.04
1 16.32 59.16 2.04
1 20.4 57.12 0
1 22.44 59.16 0
1 22.44 57.12 2.04
1 20.4 59.16 2.04
1 24.48 57.12 0
1 26.52 59.16 0
1 26.52 57.12 2.04
1 24.48 59.16 2.04
1 28.56 57.12 0
1 30.6 59.16 0
1 30.6 57.12 2.04
1 28.56 59.16 2.04
1 32.64 57.12 0
1 34.68 59.16 0
1 34.68 57.12 2.04
1 32.64 59.16 2.04
1 36.72 57.12 0
1 38.76 59.16 0
1 38.76 57.12 2.04
1 36.72 59.16 2.04
1 40.8 57.12 0
1 42.84 59.16 0
1 42.84 57.12 2.04
1 40.8 59.16 2.04
1 44.88 57.12 0
1 46.92 59.16 0
1 46.92 57.12 2.04
1 44.88 59.16 2.04
1 48.96 57.12 0
1 51 59.16 0
1 51 57.12 2.04
1 48.96 59.16 2.04
1 53.04 57.12 0
1 55.08 59.16 0
1 55.08 57.12 2.04
1 53.04 59.16 2.04
1 57.12 57.12 0
1 59.16 59.16 0
1 59.16 57.12 2.04
1 57.12 59.16 2.04
1 61.2 57.12 0
1 63.24 59.16 0
1 63.24 57.12 2.04
1 61.2 59.16 2.04
1 65.28 57.12 0
1 67.32 59.16 0
1 67.32 57.12 2.04
1 65.28 59.16 2.04
1 69.36 57.12 0
1 71.4 59.16 0
1 71.4 57.12 2.04
1 69.36 59.16 2.04
1 73.44 57.12 0
1 75.48 59.16 0
1 75.48 57.12 2.04
1 73.44 59.16 2.04
1 77.52 57.12 0
1 79.56 59.16 0
1 79.56 57.12 2.04
1 77.52 59.16 2.04
1 0 61.2 0
1 2.04 63.24 0
1 2.04 61.2 2.04
1 0 63.24 2.04
1 4.08 61.2 0
1 6.12 63.24 0
1 6.12 61.2 2.04
1 4.08 63.24 2.04
1 8.16 61.2 0
1 10.2 63.24 0
1 10.2 61.2 2.04
1 8.16 63.24 2.04
1 12.24 61.2 0
1 14.28 63.24 0
1 14.28 61.2 2.04
1 12.24 63.24 2.04
1 16.32 61.2 0
1 18.36 63.24 0
1 18.36 61.2 2.04
1 16.32 63.24 2.04
1 20.4 61.2 0
1 22.44 63.24 0
1 22.44 61.2 2.04
1 20.4 63.24 2.04
1 24.48 61.2 0
1 26.52 63.24 0
1 26.52 61.2 2.04
1 24.48 63.24 2.04
1 28.56 61.2 0
1 30.6 63.24 0
1 30.6 61.2 2.04
1 28.56 63.24 2.04
1 32.64 61.2 0
1 34.68 63.24 0
1 34.68 61.2 2.04
1 32.64 63.24 2.04
1 36.72 61.2 0
1 38.76 63.24 0
1 38.76 61.2 2.04
1 36.72 63.24 2.04
1 40.8 61.2 0
1 42.84 63.24 0
1 42.84 61.2 2.04
1 40.8 63.24 2.04
1 44.88 61.2 0
1 46.92 63.24 0
1 46.92 61.2 2.04
1 44.88 63.24 2.04
1 48.96 61.2 0
1 51 63.24 0
1 51 61.2 2.04
1 48.96 63.24 2.04
1 53.04 61.2 0
1 55.08 63.24 0
1 55.08 61.2 2.04
1 53.04 63.24 2.04
1 57.12 61.2 0
1 59.16 63.24 0
1 59.16 61.2 2.04
1 57.12 63.24 2.04
1 61.2 61.2 0
1 63.24 63.24 0
1 63.24 61.2 2.04
1 61.2 63.24 2.04
1 65.28 61.2 0
1 67.32 63.24 0
1 67.32 61.2 2.04
1 65.28 63.24 2.04
1 69.36 61.2 0
1 71.4 63.24 0
1 71.4 61.2 2.04
1 69.36 63.24 2.04
1 73.44 61.2 0
1 75.48 63.24 0
1 75.48 61.2 2.04
1 73.44 63.24 2.04
1 77.52 61.2 0
1 79.56 63.24 0
1 79.56 61.2 2.04
1 77.52 63.24 2.04
1 0 65.28 0
1 2.04 67.32 0
1 2.04 65.28 2.04
1 0 67.32 2.04
1 4.08 65.28 0
1 6.12 67.32 0
1 6.12 65.28 2.04
1 4.08 67.32 2.04
1 8.16 65.28 0
1 10.2 67.32 0
1 10.2 65.28 2.04
1 8.16 67.32 2.04
1 12.24 65.28 0
1 14.28 67.32 0
1 14.28 65.28 2.04
1 12.24 67.32 2.04
1 16.32 65.28 0
1 18.36 67.32 0
1 18.36 65.28 2.04
1 16.32 67.32 2.04
1 20.4 65.28 0
1 22.44 67.32 0
1 22.44 65.28 2.04
1 20.4 67.32 2.04
1 24.48 65.28 0
1 26.52 67.32 0
1 26.52 65.28 2.04
1 24.48 67.32 2.04
1 28.56 65.28 0
1 30.6 67.32 0
1 30.6 65.28 2.04
1 28.56 67.32 2.04
1 32.64 65.28 0
1 34.68 67.32 0
1 34.68 65.28 2.04
1 32.64 67.32 2.04
1 36.72 65.28 0
1 38.76 67.32 0
1 38.76 65.28 2.04
1 36.72 67.32 2.04
1 40.8 65.28 0
1 42.84 67.32 0
1 42.84 65.28 2.04
1 40.8 67.32 2.04
1 44.88 65.28 0
1 46.92 67.32 0
1 46.92 65.28 2.04
1 44.88 67.32 2.04
1 48.96 65.28 0
1 51 67.32 0
1 51 65.28 2.04
1 48.96 67.32 2.04
1 53.04 65.28 0
1 55.08 67.32 0
1 55.08 65.28 2.04
1 53.04 67.32 2.04
1 57.12 65.28 0
1 59.16 67.32 0
1 59.16 65.28 2.04
1 57.12 67.32 2.04
1 61.2 65.28 0
1 63.24 67.32 0
1 63.24 65.28 2.04
1 61.2 67.32 2.04
1 65.28 65.28 0
1 67.32 67.32 0
1 67.32 65.28 2.04
1 65.28 67.32 2.04
1 69.36 65.28 0
1 71.4 67.32 0
1 71.4 65.28 2.04
1 69.36 67.32 2.04
1 73.44 65.28 0
1 75.48 67.32 0
1 75.48 65.28 2.04
1 73.44 67.32 2.04
1 77.52 65.28 0
1 79.56 67.32 0
1 79.56 65.28 2.04
1 77.52 67.32 2.04
1 0 69.36 0
1 2.04 71.4 0
1 2.04 69.36 2.04
1 0 71.4 2.04
1 4.08 69.36 0
1 6.12 71.4 0
1 6.12 69.36 2.04
1 4.08 71.4 2.04
1 8.16 69.36 0
1 10.2 71.4 0
1 10.2 69.36 2.04
1 8.16 71.4 2.04
1 12.24 69.36 0
1 14.28 71.4 0
1 14.28 69.36 2.04
1 12.24 71.4 2.04
1 16.32 69.36 0
1 18.36 71.4 0
1 18.36 69.36 2.04
1 16.32 71.4 2.04
1 20.4 69.36 0
1 22.44 71.4 0
1 22.44 69.36 2.04
1 20.4 71.4 2.04
1 24.48 69.36 0
1 26.52 71.4 0
1 26.52 69.36 2.04
1 24.48 71.4 2.04
1 28.56 69.36 0
1 30.6 71.4 0
1 30.6 69.36 2.04
1 28.56 71.4 2.04
1 32.64 69.36 0
1 34.68 71.4 0
1 34.68 69.36 2.04
1 32.64 71.4 2.04
1 36.72 69.36 0
1 38.76 71.4 0
1 38.76 69.36 2.04
1 36.72 71.4 2.04
1 40.8 69.36 0
1 42.84 71.4 0
1 42.84 69.36 2.04
1 40.8 71.4 2.04
1 44.88 69.36 0
1 46.92 71.4 0
1 46.92 69.36 2.04
1 44.88 71.4 2.04
1 48.96 69.36 0
1 51 71.4 0
1 51 69.36 2.04
1 48.96 71.4 2.04
1 53.04 69.36 0
1 55.08 71.4 0
1 55.08 69.36 2.04
1 53.04 71.4 2.04
1 57.12 69.36 0
1 59.16 71.4 0
1 59.16 69.36 2.04
1 57.12 71.4 2.04
1 61.2 69.36 0
1 63.24 71.4 0
1 63.24 69.36 2.04
1 61.2 71.4 2.04
1 65.28 69.36 0
1 67.32 71.4 0
1 67.32 69.36 2.04
1 65.28 71.4 2.04
1 69.36 69.36 0
1 71.4 71.4 0
1 71.4 69.36 2.04
1 69.36 71.4 2.04
1 73.44 69.36 0
1 75.48 71.4 0
1 75.48 69.36 2.04
1 73.44 71.4 2.04
1 77.52 69.36 0
1 79.56 71.4 0
1 79.56 69.36 2.04
1 77.52 71.4 2.04
1 0 73.44 0
1 2.04 75.48 0
1 2.04 73.44 2.04
1 0 75.48 2.04
1 4.08 73.44 0
1 6.12 75.48 0
1 6.12 73.44 2.04
1 4.08 75.48 2.04
1 8.16 73.44 0
1 10.2 75.48 0
1 10.2 73.44 2.04
1 8.16 75.48 2.04
1 12.24 73.44 0
1 14.28 75.48 0
1 14.28 73.44 2.04
1 12.24 75.48 2.04
1 16.32 73.44 0
1 18.36 75.48 0
1 18.36 73.44 2.04
1 16.32 75.48 2.04
1 20.4 73.44 0
1 22.44 75.48 0
1 22.44 73.44 2.04
1 20.4 75.48 2.04
1 24.48 73.44 0
1 26.52 75.48 0
1 26.52 73.44 2.04
1 24.48 75.48 2.04
1 28.56 73.44 0
1 30.6 75.48 0
1 30.6 73.44 2.04
1 28.56 75.48 2.04
1 32.64 73.44 0
1 34.68 75.48 0
1 34.68 73.44 2.04
1 32.64 75.48 2.04
1 36.72 73.44 0
1 38.76 75.48 0
1 38.76 73.44 2.04
1 36.72 75.48 2.04
1 40.8 73.44 0
1 42.84 75.48 0
1 42.84 73.44 2.04
1 40.8 75.48 2.04
1 44.88 73.44 0
1 46.92 75.48 0
1 46.92 73.44 2.04
1 44.88 75.48 2.04
1 48.96 73.44 0
1 51 75.48 0
1 51 73.44 2.04
1 48.96 75.48 2.04
1 53.04 73.44 0
1 55.08 75.48 0
1 55.08 73.44 2.04
1 53.04 75.48 2.04
1 57.12 73.44 0
1 59.16 75.48 0
1 59.16 73.44 2.04
1 57.12 75.48 2.04
1 61.2 73.44 0
1 63.24 75.48 0
1 63.24 73.44 2.04
1 61.2 75.48 2.04
1 65.28 73.44 0
1 67.32 75.48 0
1 67.32 73.44 2.04
1 65.28 75.48 2.04
1 69.36 73.44 0
1 71.4 75.48 0
1 71.4 73.44 2.04
1 69.36 75.48 2.04
1 73.44 73.44 0
1 75.48 75.48 0
1 75.48 73.44 2.04
1 73.44 75.48 2.04
1 77.52 73.44 0
1 79.56 75.48 0
1 79.56 73.44 2.04
1 77.52 75.48 2.04
1 0 77.52 0
1 2.04 79.56 0
1 2.04 77.52 2.04
1 0 79.56 2.04
1 4.08 77.52 0
1 6.12 79.56 0
1 6.12 77.52 2.04
1 4.08 79.56 2.04
1 8.16 77.52 0
1 10.2 79.56 0
1 10.2 77.52 2.04
1 8.16 79.56 2.04
1 12.24 77.52 0
1 14.28 79.56 0
1 14.28 77.52 2.04
1 12.24 79.56 2.04
1 16.32 77.52 0
1 18.36 79.56 0
1 18.36 77.52 2.04
1 16.32 79.56 2.04
1 20.4 77.52 0
1 22.44 79.56 0
1 22.44 77.52 2.04
1 20.4 79.56 2.04
1 24.48 77.52 0
1 26.52 79.56 0
1 26.52 77.52 2.04
1 24.48 79.56 2.04
1 28.56 77.52 0
1 30.6 79.56 0
1 30.6 77.52 2.04
1 28.56 79.56 2.04
1 32.64 77.52 0
1 34.68 79.56 0
1 34.68 77.52 2.04
1 32.64 79.56 2.04
1 36.72 77.52 0
1 38.76 79.56 0
1 38.76 77.52 2.04
1 36.72 79.56 2.04
1 40.8 77.52 0
1 42.84 79.56 0
1 42.84 77.52 2.04
1 40.8 79.56 2.04
1 44.88 77.52 0
1 46.92 79.56 0
1 46.92 77.52 2.04
1 44.88 79.56 2.04
1 48.96 77.52 0
1 51 79.56 0
1 51 77.52 2.04
1 48.96 79.56 2.04
1 53.04 77.52 0
1 55.08 79.56 0
1 55.08 77.52 2.04
1 53.04 79.56 2.04
1 57.12 77.52 0
1 59.16 79.56 0
1 59.16 77.52 2.04
1 57.12 79.56 2.04
1 61.2 77.52 0
1 63.24 79.56 0
1 63.24 77.52 2.04
1 61.2 79.56 2.04
1 65.28 77.52 0
1 67.32 79.56 0
1 67.32 77.52 2.04
1 65.28 79.56 2.04
1 69.36 77.52 0
1 71.4 79.56 0
1 71.4 77.52 2.04
1 69.36 79.56 2.04
1 73.44 77.52 0
1 75.48 79.56 0
1 75.48 77.52 2.04
1 73.44 79.56 2.04
1 77.52 77.52 0
1 79.56 79.56 0
1 79.56 77.52 2.04
1 77.52 79.56 2.04
1 0 0 4.08
1 2.04 2.04 4.08
1 2.04 0 6.12
1 0 2.04 6.12
1 4.08 0 4.08
1 6.12 2.04 4.08
1 6.12 0 6.12
1 4.08 2.04 6.12
1 8.16 0 4.08
1 10.2 2.04 4.08
1 10.2 0 6.12
1 8.16 2.04 6.12
1 12.24 0 4.08
1 14.28 2.04 4.08
1 14.28 0 6.12
1 12.24 2.04 6.12
1 16.32 0 4.08
1 18.36 2.04 4.08
1 18.36 0 6.12
1 16.32 2.04 6.12
1 20.4 0 4.08
1 22.44 2.04 4.08
1 22.44 0 6.12
1 20.4 2.04 6.12
1 24.48 0 4.08
1 26.52 2.04 4.08
1 26.52 0 6.12
1 24.48 2.04 6.12
1 28.56 0 4.08
1 30.6 2.04 4.08
1 30.6 0 6.12
1 28.56 2.04 6.12
1 32.64 0 4.08
1 34.68 2.04 4.08
1 34.68 0 6.12
1 32.64 2.04 6.12
1 36.72 0 4.08
1 38.76 2.04 4.08
1 38.76 0 6.12
1 36.72 2.04 6.12
1 40.8 0 4.08
1 42.84 2.04 4.08
1 42.84 0 6.12
1 40.8 2.04 6.12
1 44.88 0 4.08
1 46.92 2.04 4.08
1 46.92 0 6.12
1 44.88 2.04 6.12
1 48.96 0 4.08
1 51 2.04 4.08
1 51 0 6.12
1 48.96 2.04 6.12
1 53.04 0 4.08
1 55.08 2.04 4.08
1 55.08 0 6.12
1 53.04 2.04 6.12
1 57.12 0 4.08
1 59.16 2.04 4.08
1 59.16 0 6.12
1 57.12 2.04 6.12
1 61.2 0 4.08
1 63.24 2.04 4.08
1 63.24 0 6.12
1 61.2 2.04 6.12
1 65.28 0 4.08
1 67.32 2.04 4.08
1 67.32 0 6.12
1 65.28 2.04 6.12
1 69.36 0 4.08
1 71.4 2.04 4.08
1 71.4 0 6.12
1 69.36 2.04 6.12
1 73.44 0 4.08
1 75.48 2.04 4.08
1 75.48 0 6.12
1 73.44 2.04 6.12
1 77.52 0 4.08
1 79.56 2.04 4.08
1 79.56 0 6.12
1 77.52 2.04 6.12
1 0 4.08 4.08
1 2.04 6.12 4.08
1 2.04 4.08 6.12
1 0 6.12 6.12
1 4.08 4.08 4.08
1 6.12 6.12 4.08
1 6.12 4.08 6.12
1 4.08 6.12 6.12
1 8.16 4.08 4.08
1 10.2 6.12 4.08
1 10.2 4.08 6.12
1 8.16 6.12 6.12
1 12.24 4.08 4.08
1 14.28 6.12 4.08
1 14.28 4.08 6.12
1 12.24 6.12 6.12
1 16.32 4.08 4.08
1 18.36 6.12 4.08
1 18.36 4.08 6.12
1 16.32 6.12 6.12
1 20.4 4.08 4.08
1 22.44 6.12 4.08
1 22.44 4.08 6.12
1 20.4 6.12 6.12
1 24.48 4.08 4.08
1 26.52 6.12 4.08
1 26.52 4.08 6.12
1 24.48 6.12 6.12
1 28.56 4.08 4.08
1 30.6 6.12 4.08
1 30.6 4.08 6.12
1 28.56 6.12 6.12
1 32.64 4.08 4.08
1 34.68 6.12 4.08
1 34.68 4.08 6.12
1 32.64 6.12 6.12
1 36.72 4.08 4.08
1 38.76 6.12 4.08
1 38.76 4.08 6.12
1 36.72 6.12 6.12
1 40.8 4.08 4.08
1 42.84 6.12 4.08
1 42.84 4.08 6.12
1 40.8 6.12 6.12
1 44.88 4.08 4.08
1 46.92 6.12 4.08
1 46.92 4.08 6.12
1 44.88 6.12 6.12
1 48.96 4.08 4.08
1 51 6.12 4.08
1 51 4.08 6.12
1 48.96 6.12 6.12
1 53.04 4.08 4.08
1 55.08 6.12 4.08
1 55.08 4.08 6.12
1 53.04 6.12 6.12
1 57.12 4.08 4.08
1 59.16 6.12 4.08
1 59.16 4.08 6.12
1 57.12 6.12 6.12
1 61.2 4.08 4.08
1 63.24 6.12 4.08
1 63.24 4.08 6.12
1 61.2 6.12 6.12
1 65.28 4.08 4.08
1 67.32 6.12 4.08
1 67.32 4.08 6.12
1 65.28 6.12 6.12
1 69.36 4.08 4.08
1 71.4 6.12 4.08
1 71.4 4.08 6.12
1 69.36 6.12 6.12
1 73.44 4.08 4.08
1 75.48 6.12 4.08
1 75.48 4.08 6.12
1 73.44 6.12 6.12
1 77.52 4.08 4.08
1 79.56 6.12 4.08
1 79.56 4.08 6.12
1 77.52 6.12 6.12
1 0 8.16 4.08
1 2.04 10.2 4.08
1 2.04 8.16 6.12
1 0 10.2 6.12
1 4.08 8.16 4.08
1 6.12 10.2 4.08
1 6.12 8.16 6.12
1 4.08 10.2 6.12
1 8.16 8.16 4.08
1 10.2 10.2 4.08
1 10.2 8.16 6.12
1 8.16 10.2 6.12
1 12.24 8.16 4.08
1 14.28 10.2 4.08
1 14.28 8.16 6.12
1 12.24 10.2 6.12
1 16.32 8.16 4.08
1 18.36 10.2 4.08
1 18.36 8.16 6.12
1 16.32 10.2 6.12
1 20.4 8.16 4.08
1 22.44 10.2 4.08
1 22.44 8.16 6.12
1 20.4 10.2 6.12
1 24.48 8.16 4.08
1 26.52 10.2 4.08
1 26.52 8.16 6.12
1 24.48 10.2 6.12
1 28.56 8.16 4.08
1 30.6 10.2 4.08
1 30.6 8.16 6.12
1 28.56 10.2 6.12
1 32.64 8.16 4.08
1 34.68 10.2 4.08
1 34.68 8.16 6.12
1 32.64 10.2 6.12