3080
Atoms. Timestep: 01
79 26.520 22.440 0.000
79 28.560 20.400 0.000
79 30.600 22.440 0.000
79 32.640 20.400 0.000
79 34.680 22.440 0.000
79 22.440 26.520 0.000
79 24.480 24.480 0.000
79 26.520 26.520 0.000
79 28.560 24.480 0.000
79 30.600 26.520 0.000
79 32.640 24.480 0.000
79 34.680 26.520 0.000
79 36.720 24.480 0.000
79 38.760 26.520 0.000
79 20.400 28.560 0.000
79 22.440 30.600 0.000
79 24.480 28.560 0.000
79 26.520 30.600 0.000
79 28.560 28.560 0.000
79 30.600 30.600 0.000
79 32.640 28.560 0.000
79 34.680 30.600 0.000
79 36.720 28.560 0.000
79 38.760 30.600 0.000
79 20.400 32.640 0.000
79 22.440 34.680 0.000
79 24.480 32.640 0.000
79 26.520 34.680 0.000
79 28.560 32.640 0.000
79 30.600 34.680 0.000
79 32.640 32.640 0.000
79 34.680 34.680 0.000
79 36.720 32.640 0.000
79 38.760 34.680 0.000
79 24.480 36.720 0.000
79 26.520 38.760 0.000
79 28.560 36.720 0.000
79 30.600 38.760 0.000
79 32.640 36.720 0.000
79 34.680 38.760 0.000
79 36.720 36.720 0.000
79 32.640 30.600 2.040
79 32.640 26.520 2.040
79 30.600 20.400 2.040
79 38.760 28.560 2.040
79 36.720 30.600 2.040
79 26.520 24.480 2.040
79 36.720 26.520 2.040
79 22.440 32.640 2.040
79 24.480 26.520 2.040
79 32.640 22.440 2.040
79 26.520 32.640 2.040
79 24.480 34.680 2.040
79 22.440 28.560 2.040
79 20.400 30.600 2.040
79 30.600 32.640 2.040
79 28.560 34.680 2.040
79 28.560 22.440 2.040
79 30.600 24.480 2.040
79 34.680 32.640 2.040
79 32.640 34.680 2.040
79 26.520 28.560 2.040
79 24.480 30.600 2.040
79 38.760 32.640 2.040
79 36.720 34.680 2.040
79 28.560 26.520 2.040
79 22.440 24.480 2.040
79 26.520 36.720 2.040
79 30.600 28.560 2.040
79 28.560 30.600 2.040
79 30.600 36.720 2.040
79 28.560 38.760 2.040
79 24.480 22.440 2.040
79 34.680 24.480 2.040
79 34.680 36.720 2.040
79 32.640 38.760 2.040
79 34.680 28.560 2.040
79 26.520 22.440 4.080
79 28.560 20.400 4.080
79 30.600 22.440 4.080
79 32.640 20.400 4.080
79 34.680 22.440 4.080
79 22.440 26.520 4.080
79 24.480 24.480 4.080
79 26.520 26.520 4.080
79 28.560 24.480 4.080
79 30.600 26.520 4.080
79 32.640 24.480 4.080
79 34.680 26.520 4.080
79 36.720 24.480 4.080
79 38.760 26.520 4.080
79 20.400 28.560 4.080
79 22.440 30.600 4.080
79 24.480 28.560 4.080
79 26.520 30.600 4.080
79 28.560 28.560 4.080
79 30.600 30.600 4.080
79 32.640 28.560 4.080
79 34.680 30.600 4.080
79 36.720 28.560 4.080
79 38.760 30.600 4.080
79 20.400 32.640 4.080
79 22.440 34.680 4.080
79 24.480 32.640 4.080
79 26.520 34.680 4.080
79 28.560 32.640 4.080
79 30.600 34.680 4.080
79 32.640 32.640 4.080
79 34.680 34.680 4.080
79 36.720 32.640 4.080
79 38.760 34.680 4.080
79 24.480 36.720 4.080
79 26.520 38.760 4.080
79 28.560 36.720 4.080
79 30.600 38.760 4.080
79 32.640 36.720 4.080
79 34.680 38.760 4.080
79 36.720 36.720 4.080
79 32.640 30.600 6.120
79 32.640 26.520 6.120
79 30.600 20.400 6.120
79 38.760 28.560 6.120
79 36.720 30.600 6.120
79 26.520 24.480 6.120
79 36.720 26.520 6.120
79 22.440 32.640 6.120
79 24.480 26.520 6.120
79 32.640 22.440 6.120
79 26.520 32.640 6.120
79 24.480 34.680 6.120
79 22.440 28.560 6.120
79 20.400 30.600 6.120
79 30.600 32.640 6.120
79 28.560 34.680 6.120
79 28.560 22.440 6.120
79 30.600 24.480 6.120
79 34.680 32.640 6.120
79 32.640 34.680 6.120
79 26.520 28.560 6.120
79 24.480 30.600 6.120
79 38.760 32.640 6.120
79 36.720 34.680 6.120
79 28.560 26.520 6.120
79 22.440 24.480 6.120
79 26.520 36.720 6.120
79 30.600 28.560 6.120
79 28.560 30.600 6.120
79 30.600 36.720 6.120
79 28.560 38.760 6.120
79 24.480 22.440 6.120
79 34.680 24.480 6.120
79 34.680 36.720 6.120
79 32.640 38.760 6.120
79 34.680 28.560 6.120
79 26.520 22.440 8.160
79 28.560 20.400 8.160
79 30.600 22.440 8.160
79 32.640 20.400 8.160
79 34.680 22.440 8.160
79 22.440 26.520 8.160
79 24.480 24.480 8.160
79 26.520 26.520 8.160
79 28.560 24.480 8.160
79 30.600 26.520 8.160
79 32.640 24.480 8.160
79 34.680 26.520 8.160
79 36.720 24.480 8.160
79 38.760 26.520 8.160
79 20.400 28.560 8.160
79 22.440 30.600 8.160
79 24.480 28.560 8.160
79 26.520 30.600 8.160
79 28.560 28.560 8.160
79 30.600 30.600 8.160
79 32.640 28.560 8.160
79 34.680 30.600 8.160
79 36.720 28.560 8.160
79 38.760 30.600 8.160
79 20.400 32.640 8.160
79 22.440 34.680 8.160
79 24.480 32.640 8.160
79 26.520 34.680 8.160
79 28.560 32.640 8.160
79 30.600 34.680 8.160
79 32.640 32.640 8.160
79 34.680 34.680 8.160
79 36.720 32.640 8.160
79 38.760 34.680 8.160
79 24.480 36.720 8.160
79 26.520 38.760 8.160
79 28.560 36.720 8.160
79 30.600 38.760 8.160
79 32.640 36.720 8.160
79 34.680 38.760 8.160
79 36.720 36.720 8.160
79 32.640 30.600 10.200
79 32.640 26.520 10.200
79 30.600 20.400 10.200
79 38.760 28.560 10.200
79 36.720 30.600 10.200
79 26.520 24.480 10.200
79 36.720 26.520 10.200
79 22.440 32.640 10.200
79 24.480 26.520 10.200
79 32.640 22.440 10.200
79 26.520 32.640 10.200
79 24.480 34.680 10.200
79 22.440 28.560 10.200
79 20.400 30.600 10.200
79 30.600 32.640 10.200
79 28.560 34.680 10.200
79 28.560 22.440 10.200
79 30.600 24.480 10.200
79 34.680 32.640 10.200
79 32.640 34.680 10.200
79 26.520 28.560 10.200
79 24.480 30.600 10.200
79 38.760 32.640 10.200
79 36.720 34.680 10.200
79 28.560 26.520 10.200
79 22.440 24.480 10.200
79 26.520 36.720 10.200
79 30.600 28.560 10.200
79 28.560 30.600 10.200
79 30.600 36.720 10.200
79 28.560 38.760 10.200
79 24.480 22.440 10.200
79 34.680 24.480 10.200
79 34.680 36.720 10.200
79 32.640 38.760 10.200
79 34.680 28.560 10.200
79 26.520 22.440 12.240
79 28.560 20.400 12.240
79 30.600 22.440 12.240
79 32.640 20.400 12.240
79 34.680 22.440 12.240
79 22.440 26.520 12.240
79 24.480 24.480 12.240
79 26.520 26.520 12.240
79 28.560 24.480 12.240
79 30.600 26.520 12.240
79 32.640 24.480 12.240
79 34.680 26.520 12.240
79 36.720 24.480 12.240
79 38.760 26.520 12.240
79 20.400 28.560 12.240
79 22.440 30.600 12.240
79 24.480 28.560 12.240
79 26.520 30.600 12.240
79 28.560 28.560 12.240
79 30.600 30.600 12.240
79 32.640 28.560 12.240
79 34.680 30.600 12.240
79 36.720 28.560 12.240
79 38.760 30.600 12.240
79 20.400 32.640 12.240
79 22.440 34.680 12.240
79 24.480 32.640 12.240
79 26.520 34.680 12.240
79 28.560 32.640 12.240
79 30.600 34.680 12.240
79 32.640 32.640 12.240
79 34.680 34.680 12.240
79 36.720 32.640 12.240
79 38.760 34.680 12.240
79 24.480 36.720 12.240
79 26.520 38.760 12.240
79 28.560 36.720 12.240
79 30.600 38.760 12.240
79 32.640 36.720 12.240
79 34.680 38.760 12.240
79 36.720 36.720 12.240
79 32.640 30.600 14.280
79 32.640 26.520 14.280
79 30.600 20.400 14.280
79 38.760 28.560 14.280
79 36.720 30.600 14.280
79 26.520 24.480 14.280
79 36.720 26.520 14.280
79 22.440 32.640 14.280
79 24.480 26.520 14.280
79 32.640 22.440 14.280
79 26.520 32.640 14.280
79 24.480 34.680 14.280
79 22.440 28.560 14.280
79 20.400 30.600 14.280
79 30.600 32.640 14.280
79 28.560 34.680 14.280
79 28.560 22.440 14.280
79 30.600 24.480 14.280
79 34.680 32.640 14.280
79 32.640 34.680 14.280
79 26.520 28.560 14.280
79 24.480 30.600 14.280
79 38.760 32.640 14.280
79 36.720 34.680 14.280
79 28.560 26.520 14.280
79 22.440 24.480 14.280
79 26.520 36.720 14.280
79 30.600 28.560 14.280
79 28.560 30.600 14.280
79 30.600 36.720 14.280
79 28.560 38.760 14.280
79 24.480 22.440 14.280
79 34.680 24.480 14.280
79 34.680 36.720 14.280
79 32.640 38.760 14.280
79 34.680 28.560 14.280
79 26.520 22.440 16.320
79 28.560 20.400 16.320
79 30.600 22.440 16.320
79 32.640 20.400 16.320
79 34.680 22.440 16.320
79 22.440 26.520 16.320
79 24.480 24.480 16.320
79 26.520 26.520 16.320
79 28.560 24.480 16.320
79 30.600 26.520 16.320
79 32.640 24.480 16.320
79 34.680 26.520 16.320
79 36.720 24.480 16.320
79 38.760 26.520 16.320
79 20.400 28.560 16.320
79 22.440 30.600 16.320
79 24.480 28.560 16.320
79 26.520 30.600 16.320
79 28.560 28.560 16.320
79 30.600 30.600 16.320
79 32.640 28.560 16.320
79 34.680 30.600 16.320
79 36.720 28.560 16.320
79 38.760 30.600 16.320
79 20.400 32.640 16.320
79 22.440 34.680 16.320
79 24.480 32.640 16.320
79 26.520 34.680 16.320
79 28.560 32.640 16.320
79 30.600 34.680 16.320
79 32.640 32.640 16.320
79 34.680 34.680 16.320
79 36.720 32.640 16.320
79 38.760 34.680 16.320
79 24.480 36.720 16.320
79 26.520 38.760 16.320
79 28.560 36.720 16.320
79 30.600 38.760 16.320
79 32.640 36.720 16.320
79 34.680 38.760 16.320
79 36.720 36.720 16.320
79 32.640 30.600 18.360
79 32.640 26.520 18.360
79 30.600 20.400 18.360
79 38.760 28.560 18.360
79 36.720 30.600 18.360
79 26.520 24.480 18.360
79 36.720 26.520 18.360
79 22.440 32.640 18.360
79 24.480 26.520 18.360
79 32.640 22.440 18.360
79 26.520 32.640 18.360
79 24.480 34.680 18.360
79 22.440 28.560 18.360
79 20.400 30.600 18.360
79 30.600 32.640 18.360
79 28.560 34.680 18.360
79 28.560 22.440 18.360
79 30.600 24.480 18.360
79 34.680 32.640 18.360
79 32.640 34.680 18.360
79 26.520 28.560 18.360
79 24.480 30.600 18.360
79 38.760 32.640 18.360
79 36.720 34.680 18.360
79 28.560 26.520 18.360
79 22.440 24.480 18.360
79 26.520 36.720 18.360
79 30.600 28.560 18.360
79 28.560 30.600 18.360
79 30.600 36.720 18.360
79 28.560 38.760 18.360
79 24.480 22.440 18.360
79 34.680 24.480 18.360
79 34.680 36.720 18.360
79 32.640 38.760 18.360
79 34.680 28.560 18.360
79 26.520 22.440 20.400
79 28.560 20.400 20.400
79 30.600 22.440 20.400
79 32.640 20.400 20.400
79 34.680 22.440 20.400
79 22.440 26.520 20.400
79 24.480 24.480 20.400
79 26.520 26.520 20.400
79 28.560 24.480 20.400
79 30.600 26.520 20.400
79 32.640 24.480 20.400
79 34.680 26.520 20.400
79 36.720 24.480 20.400
79 38.760 26.520 20.400
79 20.400 28.560 20.400
79 22.440 30.600 20.400
79 24.480 28.560 20.400
79 26.520 30.600 20.400
79 28.560 28.560 20.400
79 30.600 30.600 20.400
79 32.640 28.560 20.400
79 34.680 30.600 20.400
79 36.720 28.560 20.400
79 38.760 30.600 20.400
79 20.400 32.640 20.400
79 22.440 34.680 20.400
79 24.480 32.640 20.400
79 26.520 34.680 20.400
79 28.560 32.640 20.400
79 30.600 34.680 20.400
79 32.640 32.640 20.400
79 34.680 34.680 20.400
79 36.720 32.640 20.400
79 38.760 34.680 20.400
79 24.480 36.720 20.400
79 26.520 38.760 20.400
79 28.560 36.720 20.400
79 30.600 38.760 20.400
79 32.640 36.720 20.400
79 34.680 38.760 20.400
79 36.720 36.720 20.400
79 32.640 30.600 22.440
79 32.640 26.520 22.440
79 30.600 20.400 22.440
79 38.760 28.560 22.440
79 36.720 30.600 22.440
79 26.520 24.480 22.440
79 36.720 26.520 22.440
79 22.440 32.640 22.440
79 24.480 26.520 22.440
79 32.640 22.440 22.440
79 26.520 32.640 22.440
79 24.480 34.680 22.440
79 22.440 28.560 22.440
79 20.400 30.600 22.440
79 30.600 32.640 22.440
79 28.560 34.680 22.440
79 28.560 22.440 22.440
79 30.600 24.480 22.440
79 34.680 32.640 22.440
79 32.640 34.680 22.440
79 26.520 28.560 22.440
79 24.480 30.600 22.440
79 38.760 32.640 22.440
79 36.720 34.680 22.440
79 28.560 26.520 22.440
79 22.440 24.480 22.440
79 26.520 36.720 22.440
79 30.600 28.560 22.440
79 28.560 30.600 22.440
79 30.600 36.720 22.440
79 28.560 38.760 22.440
79 24.480 22.440 22.440
79 34.680 24.480 22.440
79 34.680 36.720 22.440
79 32.640 38.760 22.440
79 34.680 28.560 22.440
79 26.520 22.440 24.480
79 28.560 20.400 24.480
79 30.600 22.440 24.480
79 32.640 20.400 24.480
79 34.680 22.440 24.480
79 22.440 26.520 24.480
79 24.480 24.480 24.480
79 26.520 26.520 24.480
79 28.560 24.480 24.480
79 30.600 26.520 24.480
79 32.640 24.480 24.480
79 34.680 26.520 24.480
79 36.720 24.480 24.480
79 38.760 26.520 24.480
79 20.400 28.560 24.480
79 22.440 30.600 24.480
79 24.480 28.560 24.480
79 26.520 30.600 24.480
79 28.560 28.560 24.480
79 30.600 30.600 24.480
79 32.640 28.560 24.480
79 34.680 30.600 24.480
79 36.720 28.560 24.480
79 38.760 30.600 24.480
79 20.400 32.640 24.480
79 22.440 34.680 24.480
79 24.480 32.640 24.480
79 26.520 34.680 24.480
79 28.560 32.640 24.480
79 30.600 34.680 24.480
79 32.640 32.640 24.480
79 34.680 34.680 24.480
79 36.720 32.640 24.480
79 38.760 34.680 24.480
79 24.480 36.720 24.480
79 26.520 38.760 24.480
79 28.560 36.720 24.480
79 30.600 38.760 24.480
79 32.640 36.720 24.480
79 34.680 38.760 24.480
79 36.720 36.720 24.480
79 32.640 30.600 26.520
79 32.640 26.520 26.520
79 30.600 20.400 26.520
79 38.760 28.560 26.520
79 36.720 30.600 26.520
79 26.520 24.480 26.520
79 36.720 26.520 26.520
79 22.440 32.640 26.520
79 24.480 26.520 26.520
79 32.640 22.440 26.520
79 26.520 32.640 26.520
79 24.480 34.680 26.520
79 22.440 28.560 26.520
79 20.400 30.600 26.520
79 30.600 32.640 26.520
79 28.560 34.680 26.520
79 28.560 22.440 26.520
79 30.600 24.480 26.520
79 34.680 32.640 26.520
79 32.640 34.680 26.520
79 26.520 28.560 26.520
79 24.480 30.600 26.520
79 38.760 32.640 26.520
79 36.720 34.680 26.520
79 28.560 26.520 26.520
79 22.440 24.480 26.520
79 26.520 36.720 26.520
79 30.600 28.560 26.520
79 28.560 30.600 26.520
79 30.600 36.720 26.520
79 28.560 38.760 26.520
79 24.480 22.440 26.520
79 34.680 24.480 26.520
79 34.680 36.720 26.520
79 32.640 38.760 26.520
79 34.680 28.560 26.520
79 26.520 22.440 28.560
79 28.560 20.400 28.560
79 30.600 22.440 28.560
79 32.640 20.400 28.560
79 34.680 22.440 28.560
79 22.440 26.520 28.560
79 24.480 24.480 28.560
79 26.520 26.520 28.560
79 28.560 24.480 28.560
79 30.600 26.520 28.560
79 32.640 24.480 28.560
79 34.680 26.520 28.560
79 36.720 24.480 28.560
79 38.760 26.520 28.560
79 20.400 28.560 28.560
79 22.440 30.600 28.560
79 24.480 28.560 28.560
79 26.520 30.600 28.560
79 28.560 28.560 28.560
79 30.600 30.600 28.560
79 32.640 28.560 28.560
79 34.680 30.600 28.560
79 36.720 28.560 28.560
79 38.760 30.600 28.560
79 20.400 32.640 28.560
79 22.440 34.680 28.560
79 24.480 32.640 28.560
79 26.520 34.680 28.560
79 28.560 32.640 28.560
79 30.600 34.680 28.560
79 32.640 32.640 28.560
79 34.680 34.680 28.560
79 36.720 32.640 28.560
79 38.760 34.680 28.560
79 24.480 36.720 28.560
79 26.520 38.760 28.560
79 28.560 36.720 28.560
79 30.600 38.760 28.560
79 32.640 36.720 28.560
79 34.680 38.760 28.560
79 36.720 36.720 28.560
79 32.640 30.600 30.600
79 32.640 26.520 30.600
79 30.600 20.400 30.600
79 38.760 28.560 30.600
79 36.720 30.600 30.600
79 26.520 24.480 30.600
79 36.720 26.520 30.600
79 22.440 32.640 30.600
79 24.480 26.520 30.600
79 32.640 22.440 30.600
79 26.520 32.640 30.600
79 24.480 34.680 30.600
79 22.440 28.560 30.600
79 20.400 30.600 30.600
79 30.600 32.640 30.600
79 28.560 34.680 30.600
79 28.560 22.440 30.600
79 30.600 24.480 30.600
79 34.680 32.640 30.600
79 32.640 34.680 30.600
79 26.520 28.560 30.600
79 24.480 30.600 30.600
79 38.760 32.640 30.600
79 36.720 34.680 30.600
79 28.560 26.520 30.600
79 22.440 24.480 30.600
79 26.520 36.720 30.600
79 30.600 28.560 30.600
79 28.560 30.600 30.600
79 30.600 36.720 30.600
79 28.560 38.760 30.600
79 24.480 22.440 30.600
79 34.680 24.480 30.600
79 34.680 36.720 30.600
79 32.640 38.760 30.600
79 34.680 28.560 30.600
79 26.520 22.440 32.640
79 28.560 20.400 32.640
79 30.600 22.440 32.640
79 32.640 20.400 32.640
79 34.680 22.440 32.640
79 22.440 26.520 32.640
79 24.480 24.480 32.640
79 26.520 26.520 32.640
79 28.560 24.480 32.640
79 30.600 26.520 32.640
79 32.640 24.480 32.640
79 34.680 26.520 32.640
79 36.720 24.480 32.640
79 38.760 26.520 32.640
79 20.400 28.560 32.640
79 22.440 30.600 32.640
79 24.480 28.560 32.640
79 26.520 30.600 32.640
79 28.560 28.560 32.640
79 30.600 30.600 32.640
79 32.640 28.560 32.640
79 34.680 30.600 32.640
79 36.720 28.560 32.640
79 38.760 30.600 32.640
79 20.400 32.640 32.640
79 22.440 34.680 32.640
79 24.480 32.640 32.640
79 26.520 34.680 32.640
79 28.560 32.640 32.640
79 30.600 34.680 32.640
79 32.640 32.640 32.640
79 34.680 34.680 32.640
79 36.720 32.640 32.640
79 38.760 34.680 32.640
79 24.480 36.720 32.640
79 26.520 38.760 32.640
79 28.560 36.720 32.640
79 30.600 38.760 32.640
79 32.640 36.720 32.640
79 34.680 38.760 32.640
79 36.720 36.720 32.640
79 32.640 30.600 34.680
79 32.640 26.520 34.680
79 30.600 20.400 34.680
79 38.760 28.560 34.680
79 36.720 30.600 34.680
79 26.520 24.480 34.680
79 36.720 26.520 34.680
79 22.440 32.640 34.680
79 24.480 26.520 34.680
79 32.640 22.440 34.680
79 26.520 32.640 34.680
79 24.480 34.680 34.680
79 22.440 28.560 34.680
79 20.400 30.600 34.680
79 30.600 32.640 34.680
79 28.560 34.680 34.680
79 28.560 22.440 34.680
79 30.600 24.480 34.680
79 34.680 32.640 34.680
79 32.640 34.680 34.680
79 26.520 28.560 34.680
79 24.480 30.600 34.680
79 38.760 32.640 34.680
79 36.720 34.680 34.680
79 28.560 26.520 34.680
79 22.440 24.480 34.680
79 26.520 36.720 34.680
79 30.600 28.560 34.680
79 28.560 30.600 34.680
79 30.600 36.720 34.680
79 28.560 38.760 34.680
79 24.480 22.440 34.680
79 34.680 24.480 34.680
79 34.680 36.720 34.680
79 32.640 38.760 34.680
79 34.680 28.560 34.680
79 26.520 22.440 36.720
79 28.560 20.400 36.720
79 30.600 22.440 36.720
79 32.640 20.400 36.720
79 34.680 22.440 36.720
79 22.440 26.520 36.720
79 24.480 24.480 36.720
79 26.520 26.520 36.720
79 28.560 24.480 36.720
79 30.600 26.520 36.720
79 32.640 24.480 36.720
79 34.680 26.520 36.720
79 36.720 24.480 36.720
79 38.760 26.520 36.720
79 20.400 28.560 36.720
79 22.440 30.600 36.720
79 24.480 28.560 36.720
79 26.520 30.600 36.720
79 28.560 28.560 36.720
79 30.600 30.600 36.720
79 32.640 28.560 36.720
79 34.680 30.600 36.720
79 36.720 28.560 36.720
79 38.760 30.600 36.720
79 20.400 32.640 36.720
79 22.440 34.680 36.720
79 24.480 32.640 36.720
79 26.520 34.680 36.720
79 28.560 32.640 36.720
79 30.600 34.680 36.720
79 32.640 32.640 36.720
79 34.680 34.680 36.720
79 36.720 32.640 36.720
79 38.760 34.680 36.720
79 24.480 36.720 36.720
79 26.520 38.760 36.720
79 28.560 36.720 36.720
79 30.600 38.760 36.720
79 32.640 36.720 36.720
79 34.680 38.760 36.720
79 36.720 36.720 36.720
79 32.640 30.600 38.760
79 32.640 26.520 38.760
79 30.600 20.400 38.760
79 38.760 28.560 38.760
79 36.720 30.600 38.760
79 26.520 24.480 38.760
79 36.720 26.520 38.760
79 22.440 32.640 38.760
79 24.480 26.520 38.760
79 32.640 22.440 38.760
79 26.520 32.640 38.760
79 24.480 34.680 38.760
79 22.440 28.560 38.760
79 20.400 30.600 38.760
79 30.600 32.640 38.760
79 28.560 34.680 38.760
79 28.560 22.440 38.760
79 30.600 24.480 38.760
79 34.680 32.640 38.760
79 32.640 34.680 38.760
79 26.520 28.560 38.760
79 24.480 30.600 38.760
79 38.760 32.640 38.760
79 36.720 34.680 38.760
79 28.560 26.520 38.760
79 22.440 24.480 38.760
79 26.520 36.720 38.760
79 30.600 28.560 38.760
79 28.560 30.600 38.760
79 30.600 36.720 38.760
79 28.560 38.760 38.760
79 24.480 22.440 38.760
79 34.680 24.480 38.760
79 34.680 36.720 38.760
79 32.640 38.760 38.760
79 34.680 28.560 38.760
79 26.520 22.440 40.800
79 28.560 20.400 40.800
79 30.600 22.440 40.800
79 32.640 20.400 40.800
79 34.680 22.440 40.800
79 22.440 26.520 40.800
79 24.480 24.480 40.800
79 26.520 26.520 40.800
79 28.560 24.480 40.800
79 30.600 26.520 40.800
79 32.640 24.480 40.800
79 34.680 26.520 40.800
79 36.720 24.480 40.800
79 38.760 26.520 40.800
79 20.400 28.560 40.800
79 22.440 30.600 40.800
79 24.480 28.560 40.800
79 26.520 30.600 40.800
79 28.560 28.560 40.800
79 30.600 30.600 40.800
79 32.640 28.560 40.800
79 34.680 30.600 40.800
79 36.720 28.560 40.800
79 38.760 30.600 40.800
79 20.400 32.640 40.800
79 22.440 34.680 40.800
79 24.480 32.640 40.800
79 26.520 34.680 40.800
79 28.560 32.640 40.800
79 30.600 34.680 40.800
79 32.640 32.640 40.800
79 34.680 34.680 40.800
79 36.720 32.640 40.800
79 38.760 34.680 40.800
79 24.480 36.720 40.800
79 26.520 38.760 40.800
79 28.560 36.720 40.800
79 30.600 38.760 40.800
79 32.640 36.720 40.800
79 34.680 38.760 40.800
79 36.720 36.720 40.800
79 32.640 30.600 42.840
79 32.640 26.520 42.840
79 30.600 20.400 42.840
79 38.760 28.560 42.840
79 36.720 30.600 42.840
79 26.520 24.480 42.840
79 36.720 26.520 42.840
79 22.440 32.640 42.840
79 24.480 26.520 42.840
79 32.640 22.440 42.840
79 26.520 32.640 42.840
79 24.480 34.680 42.840
79 22.440 28.560 42.840
79 20.400 30.600 42.840
79 30.600 32.640 42.840
79 28.560 34.680 42.840
79 28.560 22.440 42.840
79 30.600 24.480 42.840
79 34.680 32.640 42.840
79 32.640 34.680 42.840
79 26.520 28.560 42.840
79 24.480 30.600 42.840
79 38.760 32.640 42.840
79 36.720 34.680 42.840
79 28.560 26.520 42.840
79 22.440 24.480 42.840
79 26.520 36.720 42.840
79 30.600 28.560 42.840
79 28.560 30.600 42.840
79 30.600 36.720 42.840
79 28.560 38.760 42.840
79 24.480 22.440 42.840
79 34.680 24.480 42.840
79 34.680 36.720 42.840
79 32.640 38.760 42.840
79 34.680 28.560 42.840
79 26.520 22.440 44.880
79 28.560 20.400 44.880
79 30.600 22.440 44.880
79 32.640 20.400 44.880
79 34.680 22.440 44.880
79 22.440 26.520 44.880
79 24.480 24.480 44.880
79 26.520 26.520 44.880
79 28.560 24.480 44.880
79 30.600 26.520 44.880
79 32.640 24.480 44.880
79 34.680 26.520 44.880
79 36.720 24.480 44.880
79 38.760 26.520 44.880
79 20.400 28.560 44.880
79 22.440 30.600 44.880
79 24.480 28.560 44.880
79 26.520 30.600 44.880
79 28.560 28.560 44.880
79 30.600 30.600 44.880
79 32.640 28.560 44.880
79 34.680 30.600 44.880
79 36.720 28.560 44.880
79 38.760 30.600 44.880
79 20.400 32.640 44.880
79 22.440 34.680 44.880
79 24.480 32.640 44.880
79 26.520 34.680 44.880
79 28.560 32.640 44.880
79 30.600 34.680 44.880
79 32.640 32.640 44.880
79 34.680 34.680 44.880
79 36.720 32.640 44.880
79 38.760 34.680 44.880
79 24.480 36.720 44.880
79 26.520 38.760 44.880
79 28.560 36.720 44.880
79 30.600 38.760 44.880
79 32.640 36.720 44.880
79 34.680 38.760 44.880
79 36.720 36.720 44.880
79 32.640 30.600 46.920
79 32.640 26.520 46.920
79 30.600 20.400 46.920
79 38.760 28.560 46.920
79 36.720 30.600 46.920
79 26.520 24.480 46.920
79 36.720 26.520 46.920
79 22.440 32.640 46.920
79 24.480 26.520 46.920
79 32.640 22.440 46.920
79 26.520 32.640 46.920
79 24.480 34.680 46.920
79 22.440 28.560 46.920
79 20.400 30.600 46.920
79 30.600 32.640 46.920
79 28.560 34.680 46.920
79 28.560 22.440 46.920
79 30.600 24.480 46.920
79 34.680 32.640 46.920
79 32.640 34.680 46.920
79 26.520 28.560 46.920
79 24.480 30.600 46.920
79 38.760 32.640 46.920
79 36.720 34.680 46.920
79 28.560 26.520 46.920
79 22.440 24.480 46.920
79 26.520 36.720 46.920
79 30.600 28.560 46.920
79 28.560 30.600 46.920
79 30.600 36.720 46.920
79 28.560 38.760 46.920
79 24.480 22.440 46.920
79 34.680 24.480 46.920
79 34.680 36.720 46.920
79 32.640 38.760 46.920
79 34.680 28.560 46.920
79 26.520 22.440 48.960
79 28.560 20.400 48.960
79 30.600 22.440 48.960
79 32.640 20.400 48.960
79 34.680 22.440 48.960
79 22.440 26.520 48.960
79 24.480 24.480 48.960
79 26.520 26.520 48.960
79 28.560 24.480 48.960
79 30.600 26.520 48.960
79 32.640 24.480 48.960
79 34.680 26.520 48.960
79 36.720 24.480 48.960
79 38.760 26.520 48.960
79 20.400 28.560 48.960
79 22.440 30.600 48.960
79 24.480 28.560 48.960
79 26.520 30.600 48.960
79 28.560 28.560 48.960
79 30.600 30.600 48.960
79 32.640 28.560 48.960
79 34.680 30.600 48.960
79 36.720 28.560 48.960
79 38.760 30.600 48.960
79 20.400 32.640 48.960
79 22.440 34.680 48.960
79 24.480 32.640 48.960
79 26.520 34.680 48.960
79 28.560 32.640 48.960
79 30.600 34.680 48.960
79 32.640 32.640 48.960
79 34.680 34.680 48.960
79 36.720 32.640 48.960
79 38.760 34.680 48.960
79 24.480 36.720 48.960
79 26.520 38.760 48.960
79 28.560 36.720 48.960
79 30.600 38.760 48.960
79 32.640 36.720 48.960
79 34.680 38.760 48.960
79 36.720 36.720 48.960
79 32.640 30.600 51.000
79 32.640 26.520 51.000
79 30.600 20.400 51.000
79 38.760 28.560 51.000
79 36.720 30.600 51.000
79 26.520 24.480 51.000
79 36.720 26.520 51.000
79 22.440 32.640 51.000
79 24.480 26.520 51.000
79 32.640 22.440 51.000
79 26.520 32.640 51.000
79 24.480 34.680 51.000
79 22.440 28.560 51.000
79 20.400 30.600 51.000
79 30.600 32.640 51.000
79 28.560 34.680 51.000
79 28.560 22.440 51.000
79 30.600 24.480 51.000
79 34.680 32.640 51.000
79 32.640 34.680 51.000
79 26.520 28.560 51.000
79 24.480 30.600 51.000
79 38.760 32.640 51.000
79 36.720 34.680 51.000
79 28.560 26.520 51.000
79 22.440 24.480 51.000
79 26.520 36.720 51.000
79 30.600 28.560 51.000
79 28.560 30.600 51.000
79 30.600 36.720 51.000
79 28.560 38.760 51.000
79 24.480 22.440 51.000
79 34.680 24.480 51.000
79 34.680 36.720 51.000
79 32.640 38.760 51.000
79 34.680 28.560 51.000
79 26.520 22.440 53.040
79 28.560 20.400 53.040
79 30.600 22.440 53.040
79 32.640 20.400 53.040
79 34.680 22.440 53.040
79 22.440 26.520 53.040
79 24.480 24.480 53.040
79 26.520 26.520 53.040
79 28.560 24.480 53.040
79 30.600 26.520 53.040
79 32.640 24.480 53.040
79 34.680 26.520 53.040
79 36.720 24.480 53.040
79 38.760 26.520 53.040
79 20.400 28.560 53.040
79 22.440 30.600 53.040
79 24.480 28.560 53.040
79 26.520 30.600 53.040
79 28.560 28.560 53.040
79 30.600 30.600 53.040
79 32.640 28.560 53.040
79 34.680 30.600 53.040
79 36.720 28.560 53.040
79 38.760 30.600 53.040
79 20.400 32.640 53.040
79 22.440 34.680 53.040
79 24.480 32.640 53.040
79 26.520 34.680 53.040
79 28.560 32.640 53.040
79 30.600 34.680 53.040
79 32.640 32.640 53.040
79 34.680 34.680 53.040
79 36.720 32.640 53.040
79 38.760 34.680 53.040
79 24.480 36.720 53.040
79 26.520 38.760 53.040
79 28.560 36.720 53.040
79 30.600 38.760 53.040
79 32.640 36.720 53.040
79 34.680 38.760 53.040
79 36.720 36.720 53.040
79 32.640 30.600 55.080
79 32.640 26.520 55.080
79 30.600 20.400 55.080
79 38.760 28.560 55.080
79 36.720 30.600 55.080
79 26.520 24.480 55.080
79 36.720 26.520 55.080
79 22.440 32.640 55.080
79 24.480 26.520 55.080
79 32.640 22.440 55.080
79 26.520 32.640 55.080
79 24.480 34.680 55.080
79 22.440 28.560 55.080
79 20.400 30.600 55.080
79 30.600 32.640 55.080
79 28.560 34.680 55.080
79 28.560 22.440 55.080
79 30.600 24.480 55.080
79 34.680 32.640 55.080
79 32.640 34.680 55.080
79 26.520 28.560 55.080
79 24.480 30.600 55.080
79 38.760 32.640 55.080
79 36.720 34.680 55.080
79 28.560 26.520 55.080
79 22.440 24.480 55.080
79 26.520 36.720 55.080
79 30.600 28.560 55.080
79 28.560 30.600 55.080
79 30.600 36.720 55.080
79 28.560 38.760 55.080
79 24.480 22.440 55.080
79 34.680 24.480 55.080
79 34.680 36.720 55.080
79 32.640 38.760 55.080
79 34.680 28.560 55.080
79 26.520 22.440 57.120
79 28.560 20.400 57.120
79 30.600 22.440 57.120
79 32.640 20.400 57.120
79 34.680 22.440 57.120
79 22.440 26.520 57.120
79 24.480 24.480 57.120
79 26.520 26.520 57.120
79 28.560 24.480 57.120
79 30.600 26.520 57.120
79 32.640 24.480 57.120
79 34.680 26.520 57.120
79 36.720 24.480 57.120
79 38.760 26.520 57.120
79 20.400 28.560 57.120
79 22.440 30.600 57.120
79 24.480 28.560 57.120
79 26.520 30.600 57.120
79 28.560 28.560 57.120
79 30.600 30.600 57.120
79 32.640 28.560 57.120
79 34.680 30.600 57.120
79 36.720 28.560 57.120
79 38.760 30.600 57.120
79 20.400 32.640 57.120
79 22.440 34.680 57.120
79 24.480 32.640 57.120
79 26.520 34.680 57.120
79 28.560 32.640 57.120
79 30.600 34.680 57.120
79 32.640 32.640 57.120
79 34.680 34.680 57.120
79 36.720 32.640 57.120
79 38.760 34.680 57.120
79 24.480 36.720 57.120
79 26.520 38.760 57.120
79 28.560 36.720 57.120
79 30.600 38.760 57.120
79 32.640 36.720 57.120
79 34.680 38.760 57.120
79 36.720 36.720 57.120
79 32.640 30.600 59.160
79 32.640 26.520 59.160
79 30.600 20.400 59.160
79 38.760 28.560 59.160
79 36.720 30.600 59.160
79 26.520 24.480 59.160
79 36.720 26.520 59.160
79 22.440 32.640 59.160
79 24.480 26.520 59.160
79 32.640 22.440 59.160
79 26.520 32.640 59.160
79 24.480 34.680 59.160
79 22.440 28.560 59.160
79 20.400 30.600 59.160
79 30.600 32.640 59.160
79 28.560 34.680 59.160
79 28.560 22.440 59.160
79 30.600 24.480 59.160
79 34.680 32.640 59.160
79 32.640 34.680 59.160
79 26.520 28.560 59.160
79 24.480 30.600 59.160
79 38.760 32.640 59.160
79 36.720 34.680 59.160
79 28.560 26.520 59.160
79 22.440 24.480 59.160
79 26.520 36.720 59.160
79 30.600 28.560 59.160
79 28.560 30.600 59.160
79 30.600 36.720 59.160
79 28.560 38.760 59.160
79 24.480 22.440 59.160
79 34.680 24.480 59.160
79 34.680 36.720 59.160
79 32.640 38.760 59.160
79 34.680 28.560 59.160
79 26.520 22.440 61.200
79 28.560 20.400 61.200
79 30.600 22.440 61.200
79 32.640 20.400 61.200
79 34.680 22.440 61.200
79 22.440 26.520 61.200
79 24.480 24.480 61.200
79 26.520 26.520 61.200
79 28.560 24.480 61.200
79 30.600 26.520 61.200
79 32.640 24.480 61.200
79 34.680 26.520 61.200
79 36.720 24.480 61.200
79 38.760 26.520 61.200
79 20.400 28.560 61.200
79 22.440 30.600 61.200
79 24.480 28.560 61.200
79 26.520 30.600 61.200
79 28.560 28.560 61.200
79 30.600 30.600 61.200
79 32.640 28.560 61.200
79 34.680 30.600 61.200
79 36.720 28.560 61.200
79 38.760 30.600 61.200
79 20.400 32.640 61.200
79 22.440 34.680 61.200
79 24.480 32.640 61.200
79 26.520 34.680 61.200
79 28.560 32.640 61.200
79 30.600 34.680 61.200
79 32.640 32.640 61.200
79 34.680 34.680 61.200
79 36.720 32.640 61.200
79 38.760 34.680 61.200
79 24.480 36.720 61.200
79 26.520 38.760 61.200
79 28.560 36.720 61.200
79 30.600 38.760 61.200
79 32.640 36.720 61.200
79 34.680 38.760 61.200
79 36.720 36.720 61.200
79 32.640 30.600 63.240
79 32.640 26.520 63.240
79 30.600 20.400 63.240
79 38.760 28.560 63.240
79 36.720 30.600 63.240
79 26.520 24.480 63.240
79 36.720 26.520 63.240
79 22.440 32.640 63.240
79 24.480 26.520 63.240
79 32.640 22.440 63.240
79 26.520 32.640 63.240
79 24.480 34.680 63.240
79 22.440 28.560 63.240
79 20.400 30.600 63.240
79 30.600 32.640 63.240
79 28.560 34.680 63.240
79 28.560 22.440 63.240
79 30.600 24.480 63.240
79 34.680 32.640 63.240
79 32.640 34.680 63.240
79 26.520 28.560 63.240
79 24.480 30.600 63.240
79 38.760 32.640 63.240
79 36.720 34.680 63.240
79 28.560 26.520 63.240
79 22.440 24.480 63.240
79 26.520 36.720 63.240
79 30.600 28.560 63.240
79 28.560 30.600 63.240
79 30.600 36.720 63.240
79 28.560 38.760 63.240
79 24.480 22.440 63.240
79 34.680 24.480 63.240
79 34.680 36.720 63.240
79 32.640 38.760 63.240
79 34.680 28.560 63.240
79 26.520 22.440 65.280
79 28.560 20.400 65.280
79 30.600 22.440 65.280
79 32.640 20.400 65.280
79 34.680 22.440 65.280
79 22.440 26.520 65.280
79 24.480 24.480 65.280
79 26.520 26.520 65.280
79 28.560 24.480 65.280
79 30.600 26.520 65.280
79 32.640 24.480 65.280
79 34.680 26.520 65.280
79 36.720 24.480 65.280
79 38.760 26.520 65.280
79 20.400 28.560 65.280
79 22.440 30.600 65.280
79 24.480 28.560 65.280
79 26.520 30.600 65.280
79 28.560 28.560 65.280
79 30.600 30.600 65.280
79 32.640 28.560 65.280
79 34.680 30.600 65.280
79 36.720 28.560 65.280
79 38.760 30.600 65.280
79 20.400 32.640 65.280