64000
Atoms. Timestep: 01
79 0.000 0.000 0.000
79 2.040 2.040 0.000
79 4.080 0.000 0.000
79 6.120 2.040 0.000
79 8.160 0.000 0.000
79 10.200 2.040 0.000
79 12.240 0.000 0.000
79 14.280 2.040 0.000
79 16.320 0.000 0.000
79 18.360 2.040 0.000
79 20.400 0.000 0.000
79 22.440 2.040 0.000
79 24.480 0.000 0.000
79 26.520 2.040 0.000
79 28.560 0.000 0.000
79 30.600 2.040 0.000
79 32.640 0.000 0.000
79 34.680 2.040 0.000
79 36.720 0.000 0.000
79 38.760 2.040 0.000
79 40.800 0.000 0.000
79 42.840 2.040 0.000
79 44.880 0.000 0.000
79 46.920 2.040 0.000
79 48.960 0.000 0.000
79 51.000 2.040 0.000
79 53.040 0.000 0.000
79 55.080 2.040 0.000
79 57.120 0.000 0.000
79 59.160 2.040 0.000
79 61.200 0.000 0.000
79 63.240 2.040 0.000
79 65.280 0.000 0.000
79 67.320 2.040 0.000
79 69.360 0.000 0.000
79 71.400 2.040 0.000
79 73.440 0.000 0.000
79 75.480 2.040 0.000
79 77.520 0.000 0.000
79 79.560 2.040 0.000
79 0.000 4.080 0.000
79 2.040 6.120 0.000
79 4.080 4.080 0.000
79 6.120 6.120 0.000
79 8.160 4.080 0.000
79 10.200 6.120 0.000
79 12.240 4.080 0.000
79 14.280 6.120 0.000
79 16.320 4.080 0.000
79 18.360 6.120 0.000
79 20.400 4.080 0.000
79 22.440 6.120 0.000
79 24.480 4.080 0.000
79 26.520 6.120 0.000
79 28.560 4.080 0.000
79 30.600 6.120 0.000
79 32.640 4.080 0.000
79 34.680 6.120 0.000
79 36.720 4.080 0.000
79 38.760 6.120 0.000
79 40.800 4.080 0.000
79 42.840 6.120 0.000
79 44.880 4.080 0.000
79 46.920 6.120 0.000
79 48.960 4.080 0.000
79 51.000 6.120 0.000
79 53.040 4.080 0.000
79 55.080 6.120 0.000
79 57.120 4.080 0.000
79 59.160 6.120 0.000
79 61.200 4.080 0.000
79 63.240 6.120 0.000
79 65.280 4.080 0.000
79 67.320 6.120 0.000
79 69.360 4.080 0.000
79 71.400 6.120 0.000
79 73.440 4.080 0.000
79 75.480 6.120 0.000
79 77.520 4.080 0.000
79 79.560 6.120 0.000
79 0.000 8.160 0.000
79 2.040 10.200 0.000
79 4.080 8.160 0.000
79 6.120 10.200 0.000
79 8.160 8.160 0.000
79 10.200 10.200 0.000
79 12.240 8.160 0.000
79 14.280 10.200 0.000
79 16.320 8.160 0.000
79 18.360 10.200 0.000
79 20.400 8.160 0.000
79 22.440 10.200 0.000
79 24.480 8.160 0.000
79 26.520 10.200 0.000
79 28.560 8.160 0.000
79 30.600 10.200 0.000
79 32.640 8.160 0.000
79 34.680 10.200 0.000
79 36.720 8.160 0.000
79 38.760 10.200 0.000
79 40.800 8.160 0.000
79 42.840 10.200 0.000
79 44.880 8.160 0.000
79 46.920 10.200 0.000
79 48.960 8.160 0.000
79 51.000 10.200 0.000
79 53.040 8.160 0.000
79 55.080 10.200 0.000
79 57.120 8.160 0.000
79 59.160 10.200 0.000
79 61.200 8.160 0.000
79 63.240 10.200 0.000
79 65.280 8.160 0.000
79 67.320 10.200 0.000
79 69.360 8.160 0.000
79 71.400 10.200 0.000
79 73.440 8.160 0.000
79 75.480 10.200 0.000
79 77.520 8.160 0.000
79 79.560 10.200 0.000
79 0.000 12.240 0.000
79 2.040 14.280 0.000
79 4.080 12.240 0.000
79 6.120 14.280 0.000
79 8.160 12.240 0.000
79 10.200 14.280 0.000
79 12.240 12.240 0.000
79 14.280 14.280 0.000
79 16.320 12.240 0.000
79 18.360 14.280 0.000
79 20.400 12.240 0.000
79 22.440 14.280 0.000
79 24.480 12.240 0.000
79 26.520 14.280 0.000
79 28.560 12.240 0.000
79 30.600 14.280 0.000
79 32.640 12.240 0.000
79 34.680 14.280 0.000
79 36.720 12.240 0.000
79 38.760 14.280 0.000
79 40.800 12.240 0.000
79 42.840 14.280 0.000
79 44.880 12.240 0.000
79 46.920 14.280 0.000
79 48.960 12.240 0.000
79 51.000 14.280 0.000
79 53.040 12.240 0.000
79 55.080 14.280 0.000
79 57.120 12.240 0.000
79 59.160 14.280 0.000
79 61.200 12.240 0.000
79 63.240 14.280 0.000
79 65.280 12.240 0.000
79 67.320 14.280 0.000
79 69.360 12.240 0.000
79 71.400 14.280 0.000
79 73.440 12.240 0.000
79 75.480 14.280 0.000
79 77.520 12.240 0.000
79 79.560 14.280 0.000
79 0.000 16.320 0.000
79 2.040 18.360 0.000
79 4.080 16.320 0.000
79 6.120 18.360 0.000
79 8.160 16.320 0.000
79 10.200 18.360 0.000
79 12.240 16.320 0.000
79 14.280 18.360 0.000
79 16.320 16.320 0.000
79 18.360 18.360 0.000
79 20.400 16.320 0.000
79 22.440 18.360 0.000
79 24.480 16.320 0.000
79 26.520 18.360 0.000
79 28.560 16.320 0.000
79 30.600 18.360 0.000
79 32.640 16.320 0.000
79 34.680 18.360 0.000
79 36.720 16.320 0.000
79 38.760 18.360 0.000
79 40.800 16.320 0.000
79 42.840 18.360 0.000
79 44.880 16.320 0.000
79 46.920 18.360 0.000
79 48.960 16.320 0.000
79 51.000 18.360 0.000
79 53.040 16.320 0.000
79 55.080 18.360 0.000
79 57.120 16.320 0.000
79 59.160 18.360 0.000
79 61.200 16.320 0.000
79 63.240 18.360 0.000
79 65.280 16.320 0.000
79 67.320 18.360 0.000
79 69.360 16.320 0.000
79 71.400 18.360 0.000
79 73.440 16.320 0.000
79 75.480 18.360 0.000
79 77.520 16.320 0.000
79 79.560 18.360 0.000
79 0.000 20.400 0.000
79 2.040 22.440 0.000
79 4.080 20.400 0.000
79 6.120 22.440 0.000
79 8.160 20.400 0.000
79 10.200 22.440 0.000
79 12.240 20.400 0.000
79 14.280 22.440 0.000
79 16.320 20.400 0.000
79 18.360 22.440 0.000
79 20.400 20.400 0.000
79 22.440 22.440 0.000
79 24.480 20.400 0.000
79 26.520 22.440 0.000
79 28.560 20.400 0.000
79 30.600 22.440 0.000
79 32.640 20.400 0.000
79 34.680 22.440 0.000
79 36.720 20.400 0.000
79 38.760 22.440 0.000
79 40.800 20.400 0.000
79 42.840 22.440 0.000
79 44.880 20.400 0.000
79 46.920 22.440 0.000
79 48.960 20.400 0.000
79 51.000 22.440 0.000
79 53.040 20.400 0.000
79 55.080 22.440 0.000
79 57.120 20.400 0.000
79 59.160 22.440 0.000
79 61.200 20.400 0.000
79 63.240 22.440 0.000
79 65.280 20.400 0.000
79 67.320 22.440 0.000
79 69.360 20.400 0.000
79 71.400 22.440 0.000
79 73.440 20.400 0.000
79 75.480 22.440 0.000
79 77.520 20.400 0.000
79 79.560 22.440 0.000
79 0.000 24.480 0.000
79 2.040 26.520 0.000
79 4.080 24.480 0.000
79 6.120 26.520 0.000
79 8.160 24.480 0.000
79 10.200 26.520 0.000
79 12.240 24.480 0.000
79 14.280 26.520 0.000
79 16.320 24.480 0.000
79 18.360 26.520 0.000
79 20.400 24.480 0.000
79 22.440 26.520 0.000
79 24.480 24.480 0.000
79 26.520 26.520 0.000
79 28.560 24.480 0.000
79 30.600 26.520 0.000
79 32.640 24.480 0.000
79 34.680 26.520 0.000
79 36.720 24.480 0.000
79 38.760 26.520 0.000
79 40.800 24.480 0.000
79 42.840 26.520 0.000
79 44.880 24.480 0.000
79 46.920 26.520 0.000
79 48.960 24.480 0.000
79 51.000 26.520 0.000
79 53.040 24.480 0.000
79 55.080 26.520 0.000
79 57.120 24.480 0.000
79 59.160 26.520 0.000
79 61.200 24.480 0.000
79 63.240 26.520 0.000
79 65.280 24.480 0.000
79 67.320 26.520 0.000
79 69.360 24.480 0.000
79 71.400 26.520 0.000
79 73.440 24.480 0.000
79 75.480 26.520 0.000
79 77.520 24.480 0.000
79 79.560 26.520 0.000
79 0.000 28.560 0.000
79 2.040 30.600 0.000
79 4.080 28.560 0.000
79 6.120 30.600 0.000
79 8.160 28.560 0.000
79 10.200 30.600 0.000
79 12.240 28.560 0.000
79 14.280 30.600 0.000
79 16.320 28.560 0.000
79 18.360 30.600 0.000
79 20.400 28.560 0.000
79 22.440 30.600 0.000
79 24.480 28.560 0.000
79 26.520 30.600 0.000
79 28.560 28.560 0.000
79 30.600 30.600 0.000
79 32.640 28.560 0.000
79 34.680 30.600 0.000
79 36.720 28.560 0.000
79 38.760 30.600 0.000
79 40.800 28.560 0.000
79 42.840 30.600 0.000
79 44.880 28.560 0.000
79 46.920 30.600 0.000
79 48.960 28.560 0.000
79 51.000 30.600 0.000
79 53.040 28.560 0.000
79 55.080 30.600 0.000
79 57.120 28.560 0.000
79 59.160 30.600 0.000
79 61.200 28.560 0.000
79 63.240 30.600 0.000
79 65.280 28.560 0.000
79 67.320 30.600 0.000
79 69.360 28.560 0.000
79 71.400 30.600 0.000
79 73.440 28.560 0.000
79 75.480 30.600 0.000
79 77.520 28.560 0.000
79 79.560 30.600 0.000
79 0.000 32.640 0.000
79 2.040 34.680 0.000
79 4.080 32.640 0.000
79 6.120 34.680 0.000
79 8.160 32.640 0.000
79 10.200 34.680 0.000
79 12.240 32.640 0.000
79 14.280 34.680 0.000
79 16.320 32.640 0.000
79 18.360 34.680 0.000
79 20.400 32.640 0.000
79 22.440 34.680 0.000
79 24.480 32.640 0.000
79 26.520 34.680 0.000
79 28.560 32.640 0.000
79 30.600 34.680 0.000
79 32.640 32.640 0.000
79 34.680 34.680 0.000
79 36.720 32.640 0.000
79 38.760 34.680 0.000
79 40.800 32.640 0.000
79 42.840 34.680 0.000
79 44.880 32.640 0.000
79 46.920 34.680 0.000
79 48.960 32.640 0.000
79 51.000 34.680 0.000
79 53.040 32.640 0.000
79 55.080 34.680 0.000
79 57.120 32.640 0.000
79 59.160 34.680 0.000
79 61.200 32.640 0.000
79 63.240 34.680 0.000
79 65.280 32.640 0.000
79 67.320 34.680 0.000
79 69.360 32.640 0.000
79 71.400 34.680 0.000
79 73.440 32.640 0.000
79 75.480 34.680 0.000
79 77.520 32.640 0.000
79 79.560 34.680 0.000
79 0.000 36.720 0.000
79 2.040 38.760 0.000
79 4.080 36.720 0.000
79 6.120 38.760 0.000
79 8.160 36.720 0.000
79 10.200 38.760 0.000
79 12.240 36.720 0.000
79 14.280 38.760 0.000
79 16.320 36.720 0.000
79 18.360 38.760 0.000
79 20.400 36.720 0.000
79 22.440 38.760 0.000
79 24.480 36.720 0.000
79 26.520 38.760 0.000
79 28.560 36.720 0.000
79 30.600 38.760 0.000
79 32.640 36.720 0.000
79 34.680 38.760 0.000
79 36.720 36.720 0.000
79 38.760 38.760 0.000
79 40.800 36.720 0.000
79 42.840 38.760 0.000
79 44.880 36.720 0.000
79 46.920 38.760 0.000
79 48.960 36.720 0.000
79 51.000 38.760 0.000
79 53.040 36.720 0.000
79 55.080 38.760 0.000
79 57.120 36.720 0.000
79 59.160 38.760 0.000
79 61.200 36.720 0.000
79 63.240 38.760 0.000
79 65.280 36.720 0.000
79 67.320 38.760 0.000
79 69.360 36.720 0.000
79 71.400 38.760 0.000
79 73.440 36.720 0.000
79 75.480 38.760 0.000
79 77.520 36.720 0.000
79 79.560 38.760 0.000
79 0.000 40.800 0.000
79 2.040 42.840 0.000
79 4.080 40.800 0.000
79 6.120 42.840 0.000
79 8.160 40.800 0.000
79 10.200 42.840 0.000
79 12.240 40.800 0.000
79 14.280 42.840 0.000
79 16.320 40.800 0.000
79 18.360 42.840 0.000
79 20.400 40.800 0.000
79 22.440 42.840 0.000
79 24.480 40.800 0.000
79 26.520 42.840 0.000
79 28.560 40.800 0.000
79 30.600 42.840 0.000
79 32.640 40.800 0.000
79 34.680 42.840 0.000
79 36.720 40.800 0.000
79 38.760 42.840 0.000
79 40.800 40.800 0.000
79 42.840 42.840 0.000
79 44.880 40.800 0.000
79 46.920 42.840 0.000
79 48.960 40.800 0.000
79 51.000 42.840 0.000
79 53.040 40.800 0.000
79 55.080 42.840 0.000
79 57.120 40.800 0.000
79 59.160 42.840 0.000
79 61.200 40.800 0.000
79 63.240 42.840 0.000
79 65.280 40.800 0.000
79 67.320 42.840 0.000
79 69.360 40.800 0.000
79 71.400 42.840 0.000
79 73.440 40.800 0.000
79 75.480 42.840 0.000
79 77.520 40.800 0.000
79 79.560 42.840 0.000
79 0.000 44.880 0.000
79 2.040 46.920 0.000
79 4.080 44.880 0.000
79 6.120 46.920 0.000
79 8.160 44.880 0.000
79 10.200 46.920 0.000
79 12.240 44.880 0.000
79 14.280 46.920 0.000
79 16.320 44.880 0.000
79 18.360 46.920 0.000
79 20.400 44.880 0.000
79 22.440 46.920 0.000
79 24.480 44.880 0.000
79 26.520 46.920 0.000
79 28.560 44.880 0.000
79 30.600 46.920 0.000
79 32.640 44.880 0.000
79 34.680 46.920 0.000
79 36.720 44.880 0.000
79 38.760 46.920 0.000
79 40.800 44.880 0.000
79 42.840 46.920 0.000
79 44.880 44.880 0.000
79 46.920 46.920 0.000
79 48.960 44.880 0.000
79 51.000 46.920 0.000
79 53.040 44.880 0.000
79 55.080 46.920 0.000
79 57.120 44.880 0.000
79 59.160 46.920 0.000
79 61.200 44.880 0.000
79 63.240 46.920 0.000
79 65.280 44.880 0.000
79 67.320 46.920 0.000
79 69.360 44.880 0.000
79 71.400 46.920 0.000
79 73.440 44.880 0.000
79 75.480 46.920 0.000
79 77.520 44.880 0.000
79 79.560 46.920 0.000
79 0.000 48.960 0.000
79 2.040 51.000 0.000
79 4.080 48.960 0.000
79 6.120 51.000 0.000
79 8.160 48.960 0.000
79 10.200 51.000 0.000
79 12.240 48.960 0.000
79 14.280 51.000 0.000
79 16.320 48.960 0.000
79 18.360 51.000 0.000
79 20.400 48.960 0.000
79 22.440 51.000 0.000
79 24.480 48.960 0.000
79 26.520 51.000 0.000
79 28.560 48.960 0.000
79 30.600 51.000 0.000
79 32.640 48.960 0.000
79 34.680 51.000 0.000
79 36.720 48.960 0.000
79 38.760 51.000 0.000
79 40.800 48.960 0.000
79 42.840 51.000 0.000
79 44.880 48.960 0.000
79 46.920 51.000 0.000
79 48.960 48.960 0.000
79 51.000 51.000 0.000
79 53.040 48.960 0.000
79 55.080 51.000 0.000
79 57.120 48.960 0.000
79 59.160 51.000 0.000
79 61.200 48.960 0.000
79 63.240 51.000 0.000
79 65.280 48.960 0.000
79 67.320 51.000 0.000
79 69.360 48.960 0.000
79 71.400 51.000 0.000
79 73.440 48.960 0.000
79 75.480 51.000 0.000
79 77.520 48.960 0.000
79 79.560 51.000 0.000
79 0.000 53.040 0.000
79 2.040 55.080 0.000
79 4.080 53.040 0.000
79 6.120 55.080 0.000
79 8.160 53.040 0.000
79 10.200 55.080 0.000
79 12.240 53.040 0.000
79 14.280 55.080 0.000
79 16.320 53.040 0.000
79 18.360 55.080 0.000
79 20.400 53.040 0.000
79 22.440 55.080 0.000
79 24.480 53.040 0.000
79 26.520 55.080 0.000
79 28.560 53.040 0.000
79 30.600 55.080 0.000
79 32.640 53.040 0.000
79 34.680 55.080 0.000
79 36.720 53.040 0.000
79 38.760 55.080 0.000
79 40.800 53.040 0.000
79 42.840 55.080 0.000
79 44.880 53.040 0.000
79 46.920 55.080 0.000
79 48.960 53.040 0.000
79 51.000 55.080 0.000
79 53.040 53.040 0.000
79 55.080 55.080 0.000
79 57.120 53.040 0.000
79 59.160 55.080 0.000
79 61.200 53.040 0.000
79 63.240 55.080 0.000
79 65.280 53.040 0.000
79 67.320 55.080 0.000
79 69.360 53.040 0.000
79 71.400 55.080 0.000
79 73.440 53.040 0.000
79 75.480 55.080 0.000
79 77.520 53.040 0.000
79 79.560 55.080 0.000
79 0.000 57.120 0.000
79 2.040 59.160 0.000
79 4.080 57.120 0.000
79 6.120 59.160 0.000
79 8.160 57.120 0.000
79 10.200 59.160 0.000
79 12.240 57.120 0.000
79 14.280 59.160 0.000
79 16.320 57.120 0.000
79 18.360 59.160 0.000
79 20.400 57.120 0.000
79 22.440 59.160 0.000
79 24.480 57.120 0.000
79 26.520 59.160 0.000
79 28.560 57.120 0.000
79 30.600 59.160 0.000
79 32.640 57.120 0.000
79 34.680 59.160 0.000
79 36.720 57.120 0.000
79 38.760 59.160 0.000
79 40.800 57.120 0.000
79 42.840 59.160 0.000
79 44.880 57.120 0.000
79 46.920 59.160 0.000
79 48.960 57.120 0.000
79 51.000 59.160 0.000
79 53.040 57.120 0.000
79 55.080 59.160 0.000
79 57.120 57.120 0.000
79 59.160 59.160 0.000
79 61.200 57.120 0.000
79 63.240 59.160 0.000
79 65.280 57.120 0.000
79 67.320 59.160 0.000
79 69.360 57.120 0.000
79 71.400 59.160 0.000
79 73.440 57.120 0.000
79 75.480 59.160 0.000
79 77.520 57.120 0.000
79 79.560 59.160 0.000
79 0.000 61.200 0.000
79 2.040 63.240 0.000
79 4.080 61.200 0.000
79 6.120 63.240 0.000
79 8.160 61.200 0.000
79 10.200 63.240 0.000
79 12.240 61.200 0.000
79 14.280 63.240 0.000
79 16.320 61.200 0.000
79 18.360 63.240 0.000
79 20.400 61.200 0.000
79 22.440 63.240 0.000
79 24.480 61.200 0.000
79 26.520 63.240 0.000
79 28.560 61.200 0.000
79 30.600 63.240 0.000
79 32.640 61.200 0.000
79 34.680 63.240 0.000
79 36.720 61.200 0.000
79 38.760 63.240 0.000
79 40.800 61.200 0.000
79 42.840 63.240 0.000
79 44.880 61.200 0.000
79 46.920 63.240 0.000
79 48.960 61.200 0.000
79 51.000 63.240 0.000
79 53.040 61.200 0.000
79 55.080 63.240 0.000
79 57.120 61.200 0.000
79 59.160 63.240 0.000
79 61.200 61.200 0.000
79 63.240 63.240 0.000
79 65.280 61.200 0.000
79 67.320 63.240 0.000
79 69.360 61.200 0.000
79 71.400 63.240 0.000
79 73.440 61.200 0.000
79 75.480 63.240 0.000
79 77.520 61.200 0.000
79 79.560 63.240 0.000
79 0.000 65.280 0.000
79 2.040 67.320 0.000
79 4.080 65.280 0.000
79 6.120 67.320 0.000
79 8.160 65.280 0.000
79 10.200 67.320 0.000
79 12.240 65.280 0.000
79 14.280 67.320 0.000
79 16.320 65.280 0.000
79 18.360 67.320 0.000
79 20.400 65.280 0.000
79 22.440 67.320 0.000
79 24.480 65.280 0.000
79 26.520 67.320 0.000
79 28.560 65.280 0.000
79 30.600 67.320 0.000
79 32.640 65.280 0.000
79 34.680 67.320 0.000
79 36.720 65.280 0.000
79 38.760 67.320 0.000
79 40.800 65.280 0.000
79 42.840 67.320 0.000
79 44.880 65.280 0.000
79 46.920 67.320 0.000
79 48.960 65.280 0.000
79 51.000 67.320 0.000
79 53.040 65.280 0.000
79 55.080 67.320 0.000
79 57.120 65.280 0.000
79 59.160 67.320 0.000
79 61.200 65.280 0.000
79 63.240 67.320 0.000
79 65.280 65.280 0.000
79 67.320 67.320 0.000
79 69.360 65.280 0.000
79 71.400 67.320 0.000
79 73.440 65.280 0.000
79 75.480 67.320 0.000
79 77.520 65.280 0.000
79 79.560 67.320 0.000
79 0.000 69.360 0.000
79 2.040 71.400 0.000
79 4.080 69.360 0.000
79 6.120 71.400 0.000
79 8.160 69.360 0.000
79 10.200 71.400 0.000
79 12.240 69.360 0.000
79 14.280 71.400 0.000
79 16.320 69.360 0.000
79 18.360 71.400 0.000
79 20.400 69.360 0.000
79 22.440 71.400 0.000
79 24.480 69.360 0.000
79 26.520 71.400 0.000
79 28.560 69.360 0.000
79 30.600 71.400 0.000
79 32.640 69.360 0.000
79 34.680 71.400 0.000
79 36.720 69.360 0.000
79 38.760 71.400 0.000
79 40.800 69.360 0.000
79 42.840 71.400 0.000
79 44.880 69.360 0.000
79 46.920 71.400 0.000
79 48.960 69.360 0.000
79 51.000 71.400 0.000
79 53.040 69.360 0.000
79 55.080 71.400 0.000
79 57.120 69.360 0.000
79 59.160 71.400 0.000
79 61.200 69.360 0.000
79 63.240 71.400 0.000
79 65.280 69.360 0.000
79 67.320 71.400 0.000
79 69.360 69.360 0.000
79 71.400 71.400 0.000
79 73.440 69.360 0.000
79 75.480 71.400 0.000
79 77.520 69.360 0.000
79 79.560 71.400 0.000
79 0.000 73.440 0.000
79 2.040 75.480 0.000
79 4.080 73.440 0.000
79 6.120 75.480 0.000
79 8.160 73.440 0.000
79 10.200 75.480 0.000
79 12.240 73.440 0.000
79 14.280 75.480 0.000
79 16.320 73.440 0.000
79 18.360 75.480 0.000
79 20.400 73.440 0.000
79 22.440 75.480 0.000
79 24.480 73.440 0.000
79 26.520 75.480 0.000
79 28.560 73.440 0.000
79 30.600 75.480 0.000
79 32.640 73.440 0.000
79 34.680 75.480 0.000
79 36.720 73.440 0.000
79 38.760 75.480 0.000
79 40.800 73.440 0.000
79 42.840 75.480 0.000
79 44.880 73.440 0.000
79 46.920 75.480 0.000
79 48.960 73.440 0.000
79 51.000 75.480 0.000
79 53.040 73.440 0.000
79 55.080 75.480 0.000
79 57.120 73.440 0.000
79 59.160 75.480 0.000
79 61.200 73.440 0.000
79 63.240 75.480 0.000
79 65.280 73.440 0.000
79 67.320 75.480 0.000
79 69.360 73.440 0.000
79 71.400 75.480 0.000
79 73.440 73.440 0.000
79 75.480 75.480 0.000
79 77.520 73.440 0.000
79 79.560 75.480 0.000
79 0.000 77.520 0.000
79 2.040 79.560 0.000
79 4.080 77.520 0.000
79 6.120 79.560 0.000
79 8.160 77.520 0.000
79 10.200 79.560 0.000
79 12.240 77.520 0.000
79 14.280 79.560 0.000
79 16.320 77.520 0.000
79 18.360 79.560 0.000
79 20.400 77.520 0.000
79 22.440 79.560 0.000
79 24.480 77.520 0.000
79 26.520 79.560 0.000
79 28.560 77.520 0.000
79 30.600 79.560 0.000
79 32.640 77.520 0.000
79 34.680 79.560 0.000
79 36.720 77.520 0.000
79 38.760 79.560 0.000
79 40.800 77.520 0.000
79 42.840 79.560 0.000
79 44.880 77.520 0.000
79 46.920 79.560 0.000
79 48.960 77.520 0.000
79 51.000 79.560 0.000
79 53.040 77.520 0.000
79 55.080 79.560 0.000
79 57.120 77.520 0.000
79 59.160 79.560 0.000
79 61.200 77.520 0.000
79 63.240 79.560 0.000
79 65.280 77.520 0.000
79 67.320 79.560 0.000
79 69.360 77.520 0.000
79 71.400 79.560 0.000
79 73.440 77.520 0.000
79 75.480 79.560 0.000
79 77.520 77.520 0.000
79 79.560 79.560 0.000
79 51.000 0.000 2.040
79 48.960 2.040 2.040
79 2.040 40.800 2.040
79 0.000 42.840 2.040
79 2.040 20.400 2.040
79 0.000 22.440 2.040
79 6.120 40.800 2.040
79 4.080 42.840 2.040
79 42.840 8.160 2.040
79 40.800 10.200 2.040
79 10.200 40.800 2.040
79 8.160 42.840 2.040
79 6.120 20.400 2.040
79 4.080 22.440 2.040
79 14.280 40.800 2.040
79 12.240 42.840 2.040
79 22.440 4.080 2.040
79 20.400 6.120 2.040
79 18.360 40.800 2.040
79 16.320 42.840 2.040
79 10.200 20.400 2.040
79 8.160 22.440 2.040
79 22.440 40.800 2.040
79 20.400 42.840 2.040
79 46.920 8.160 2.040
79 44.880 10.200 2.040
79 26.520 40.800 2.040
79 24.480 42.840 2.040
79 14.280 20.400 2.040
79 12.240 22.440 2.040
79 30.600 40.800 2.040
79 28.560 42.840 2.040
79 26.520 0.000 2.040
79 24.480 2.040 2.040
79 34.680 40.800 2.040
79 32.640 42.840 2.040
79 18.360 20.400 2.040
79 16.320 22.440 2.040
79 38.760 40.800 2.040
79 36.720 42.840 2.040
79 51.000 8.160 2.040
79 48.960 10.200 2.040
79 42.840 40.800 2.040
79 40.800 42.840 2.040
79 22.440 20.400 2.040
79 20.400 22.440 2.040
79 46.920 40.800 2.040
79 44.880 42.840 2.040
79 26.520 4.080 2.040
79 24.480 6.120 2.040
79 51.000 40.800 2.040
79 48.960 42.840 2.040
79 26.520 20.400 2.040
79 24.480 22.440 2.040
79 55.080 40.800 2.040
79 53.040 42.840 2.040
79 55.080 8.160 2.040
79 53.040 10.200 2.040
79 59.160 40.800 2.040
79 57.120 42.840 2.040
79 30.600 20.400 2.040
79 28.560 22.440 2.040
79 63.240 40.800 2.040
79 61.200 42.840 2.040
79 55.080 0.000 2.040
79 53.040 2.040 2.040
79 67.320 40.800 2.040
79 65.280 42.840 2.040
79 34.680 20.400 2.040
79 32.640 22.440 2.040
79 71.400 40.800 2.040
79 69.360 42.840 2.040
79 59.160 8.160 2.040
79 57.120 10.200 2.040
79 75.480 40.800 2.040
79 73.440 42.840 2.040
79 38.760 20.400 2.040
79 36.720 22.440 2.040
79 79.560 40.800 2.040
79 77.520 42.840 2.040
79 30.600 4.080 2.040
79 28.560 6.120 2.040
79 2.040 44.880 2.040
79 0.000 46.920 2.040
79 42.840 20.400 2.040
79 40.800 22.440 2.040
79 6.120 44.880 2.040
79 4.080 46.920 2.040
79 63.240 8.160 2.040
79 61.200 10.200 2.040
79 10.200 44.880 2.040
79 8.160 46.920 2.040
79 46.920 20.400 2.040
79 44.880 22.440 2.040
79 14.280 44.880 2.040
79 12.240 46.920 2.040
79 14.280 0.000 2.040
79 12.240 2.040 2.040
79 18.360 44.880 2.040
79 16.320 46.920 2.040
79 51.000 20.400 2.040
79 48.960 22.440 2.040
79 22.440 44.880 2.040
79 20.400 46.920 2.040
79 67.320 8.160 2.040
79 65.280 10.200 2.040
79 26.520 44.880 2.040
79 24.480 46.920 2.040
79 55.080 20.400 2.040
79 53.040 22.440 2.040
79 30.600 44.880 2.040
79 28.560 46.920 2.040
79 34.680 4.080 2.040
79 32.640 6.120 2.040
79 34.680 44.880 2.040
79 32.640 46.920 2.040
79 59.160 20.400 2.040
79 57.120 22.440 2.040
79 38.760 44.880 2.040
79 36.720 46.920 2.040
79 71.400 8.160 2.040
79 69.360 10.200 2.040
79 42.840 44.880 2.040
79 40.800 46.920 2.040
79 63.240 20.400 2.040
79 61.200 22.440 2.040
79 46.920 44.880 2.040
79 44.880 46.920 2.040
79 59.160 0.000 2.040
79 57.120 2.040 2.040
79 51.000 44.880 2.040
79 48.960 46.920 2.040
79 67.320 20.400 2.040
79 65.280 22.440 2.040
79 55.080 44.880 2.040
79 53.040 46.920 2.040
79 75.480 8.160 2.040
79 73.440 10.200 2.040
79 59.160 44.880 2.040
79 57.120 46.920 2.040
79 71.400 20.400 2.040
79 69.360 22.440 2.040
79 63.240 44.880 2.040
79 61.200 46.920 2.040
79 38.760 4.080 2.040
79 36.720 6.120 2.040
79 67.320 44.880 2.040
79 65.280 46.920 2.040
79 75.480 20.400 2.040
79 73.440 22.440 2.040
79 71.400 44.880 2.040
79 69.360 46.920 2.040
79 79.560 8.160 2.040
79 77.520 10.200 2.040
79 75.480 44.880 2.040
79 73.440 46.920 2.040
79 79.560 20.400 2.040
79 77.520 22.440 2.040
79 79.560 44.880 2.040
79 77.520 46.920 2.040
79 30.600 0.000 2.040
79 28.560 2.040 2.040
79 2.040 48.960 2.040
79 0.000 51.000 2.040
79 2.040 24.480 2.040
79 0.000 26.520 2.040
79 6.120 48.960 2.040
79 4.080 51.000 2.040
79 2.040 12.240 2.040
79 0.000 14.280 2.040
79 10.200 48.960 2.040
79 8.160 51.000 2.040
79 6.120 24.480 2.040
79 4.080 26.520 2.040
79 14.280 48.960 2.040
79 12.240 51.000 2.040
79 42.840 4.080 2.040
79 40.800 6.120 2.040
79 18.360 48.960 2.040
79 16.320 51.000 2.040
79 10.200 24.480 2.040
79 8.160 26.520 2.040
79 22.440 48.960 2.040
79 20.400 51.000 2.040
79 6.120 12.240 2.040
79 4.080 14.280 2.040
79 26.520 48.960 2.040
79 24.480 51.000 2.040
79 14.280 24.480 2.040
79 12.240 26.520 2.040
79 30.600 48.960 2.040
79 28.560 51.000 2.040
79 63.240 0.000 2.040
79 61.200 2.040 2.040
79 34.680 48.960 2.040
79 32.640 51.000 2.040
79 18.360 24.480 2.040
79 16.320 26.520 2.040
79 38.760 48.960 2.040
79 36.720 51.000 2.040
79 10.200 12.240 2.040
79 8.160 14.280 2.040
79 42.840 48.960 2.040
79 40.800 51.000 2.040
79 22.440 24.480 2.040
79 20.400 26.520 2.040
79 46.920 48.960 2.040
79 44.880 51.000 2.040
79 46.920 4.080 2.040
79 44.880 6.120 2.040
79 51.000 48.960 2.040
79 48.960 51.000 2.040
79 26.520 24.480 2.040
79 24.480 26.520 2.040
79 55.080 48.960 2.040
79 53.040 51.000 2.040
79 14.280 12.240 2.040
79 12.240 14.280 2.040
79 59.160 48.960 2.040
79 57.120 51.000 2.040
79 30.600 24.480 2.040
79 28.560 26.520 2.040
79 63.240 48.960 2.040
79 61.200 51.000 2.040
79 2.040 0.000 2.040
79 0.000 2.040 2.040
79 67.320 48.960 2.040
79 65.280 51.000 2.040
79 34.680 24.480 2.040
79 32.640 26.520 2.040
79 71.400 48.960 2.040
79 69.360 51.000 2.040
79 18.360 12.240 2.040
79 16.320 14.280 2.040
79 75.480 48.960 2.040
79 73.440 51.000 2.040
79 38.760 24.480 2.040
79 36.720 26.520 2.040
79 79.560 48.960 2.040
79 77.520 51.000 2.040
79 51.000 4.080 2.040
79 48.960 6.120 2.040
79 2.040 53.040 2.040
79 0.000 55.080 2.040
79 42.840 24.480 2.040
79 40.800 26.520 2.040
79 6.120 53.040 2.040
79 4.080 55.080 2.040
79 22.440 12.240 2.040
79 20.400 14.280 2.040
79 10.200 53.040 2.040
79 8.160 55.080 2.040
79 46.920 24.480 2.040
79 44.880 26.520 2.040
79 14.280 53.040 2.040
79 12.240 55.080 2.040
79 67.320 0.000 2.040
79 65.280 2.040 2.040
79 18.360 53.040 2.040
79 16.320 55.080 2.040
79 51.000 24.480 2.040
79 48.960 26.520 2.040
79 22.440 53.040 2.040
79 20.400 55.080 2.040
79 26.520 12.240 2.040
79 24.480 14.280 2.040
79 26.520 53.040 2.040
79 24.480 55.080 2.040
79 55.080 24.480 2.040
79 53.040 26.520 2.040
79 30.600 53.040 2.040
79 28.560 55.080 2.040
79 55.080 4.080 2.040
79 53.040 6.120 2.040
79 34.680 53.040 2.040
79 32.640 55.080 2.040
79 59.160 24.480 2.040
79 57.120 26.520 2.040
79 38.760 53.040 2.040
79 36.720 55.080 2.040
79 30.600 12.240 2.040
79 28.560 14.280 2.040
79 42.840 53.040 2.040
79 40.800 55.080 2.040
79 63.240 24.480 2.040
79 61.200 26.520 2.040
79 46.920 53.040 2.040
79 44.880 55.080 2.040
79 34.680 0.000 2.040
79 32.640 2.040 2.040
79 51.000 53.040 2.040
79 48.960 55.080 2.040
79 67.320 24.480 2.040
79 65.280 26.520 2.040
79 55.080 53.040 2.040
79 53.040 55.080 2.040
79 34.680 12.240 2.040
79 32.640 14.280 2.040
79 59.160 53.040 2.040
79 57.120 55.080 2.040
79 71.400 24.480 2.040
79 69.360 26.520 2.040
79 63.240 53.040 2.040
79 61.200 55.080 2.040
79 59.160 4.080 2.040
79 57.120 6.120 2.040
79 67.320 53.040 2.040
79 65.280 55.080 2.040
79 75.480 24.480 2.040
79 73.440 26.520 2.040
79 71.400 53.040 2.040
79 69.360 55.080 2.040
79 38.760 12.240 2.040
79 36.720 14.280 2.040
79 75.480 53.040 2.040
79 73.440 55.080 2.040
79 79.560 24.480 2.040
79 77.520 26.520 2.040
79 79.560 53.040 2.040
79 77.520 55.080 2.040
79 71.400 0.000 2.040
79 69.360 2.040 2.040
79 2.040 57.120 2.040
79 0.000 59.160 2.040
79 2.040 28.560 2.040
79 0.000 30.600 2.040
79 6.120 57.120 2.040
79 4.080 59.160 2.040
79 42.840 12.240 2.040
79 40.800 14.280 2.040
79 10.200 57.120 2.040
79 8.160 59.160 2.040
79 6.120 28.560 2.040
79 4.080 30.600 2.040
79 14.280 57.120 2.040
79 12.240 59.160 2.040
79 63.240 4.080 2.040
79 61.200 6.120 2.040
79 18.360 57.120 2.040
79 16.320 59.160 2.040
79 10.200 28.560 2.040
79 8.160 30.600 2.040
79 22.440 57.120 2.040
79 20.400 59.160 2.040
79 46.920 12.240 2.040
79 44.880 14.280 2.040
79 26.520 57.120 2.040
79 24.480 59.160 2.040
79 14.280 28.560 2.040
79 12.240 30.600 2.040
79 30.600 57.120 2.040
79 28.560 59.160 2.040
79 18.360 0.000 2.040
79 16.320 2.040 2.040
79 34.680 57.120 2.040
79 32.640 59.160 2.040
79 18.360 28.560 2.040
79 16.320 30.600 2.040
79 38.760 57.120 2.040
79 36.720 59.160 2.040
79 51.000 12.240 2.040
79 48.960 14.280 2.040
79 42.840 57.120 2.040
79 40.800 59.160 2.040
79 22.440 28.560 2.040
79 20.400 30.600 2.040
79 46.920 57.120 2.040
79 44.880 59.160 2.040
79 67.320 4.080 2.040
79 65.280 6.120 2.040
79 51.000 57.120 2.040
79 48.960 59.160 2.040
79 26.520 28.560 2.040
79 24.480 30.600 2.040
79 55.080 57.120 2.040
79 53.040 59.160 2.040
79 55.080 12.240 2.040
79 53.040 14.280 2.040
79 59.160 57.120 2.040
79 57.120 59.160 2.040
79 30.600 28.560 2.040
79 28.560 30.600 2.040
79 63.240 57.120 2.040
79 61.200 59.160 2.040
79 75.480 0.000 2.040
79 73.440 2.040 2.040
79 67.320 57.120 2.040
79 65.280 59.160 2.040
79 34.680 28.560 2.040
79 32.640 30.600 2.040
79 71.400 57.120 2.040
79 69.360 59.160 2.040
79 59.160 12.240 2.040
79 57.120 14.280 2.040
79 75.480 57.120 2.040
79 73.440 59.160 2.040
79 38.760 28.560 2.040
79 36.720 30.600 2.040
79 79.560 57.120 2.040
79 77.520 59.160 2.040
79 71.400 4.080 2.040
79 69.360 6.120 2.040
79 2.040 61.200 2.040
79 0.000 63.240 2.040
79 42.840 28.560 2.040
79 40.800 30.600 2.040
79 6.120 61.200 2.040
79 4.080 63.240 2.040
79 63.240 12.240 2.040
79 61.200 14.280 2.040
79 10.200 61.200 2.040
79 8.160 63.240 2.040
79 46.920 28.560 2.040
79 44.880 30.600 2.040
79 14.280 61.200 2.040
79 12.240 63.240 2.040
79 38.760 0.000 2.040
79 36.720 2.040 2.040
79 18.360 61.200 2.040
79 16.320 63.240 2.040
79 51.000 28.560 2.040
79 48.960 30.600 2.040
79 22.440 61.200 2.040
79 20.400 63.240 2.040
79 67.320 12.240 2.040
79 65.280 14.280 2.040
79 26.520 61.200 2.040
79 24.480 63.240 2.040
79 55.080 28.560 2.040
79 53.040 30.600 2.040
79 30.600 61.200 2.040
79 28.560 63.240 2.040
79 75.480 4.080 2.040
79 73.440 6.120 2.040
79 34.680 61.200 2.040
79 32.640 63.240 2.040
79 59.160 28.560 2.040
79 57.120 30.600 2.040
79 38.760 61.200 2.040
79 36.720 63.240 2.040
79 71.400 12.240 2.040
79 69.360 14.280 2.040
79 42.840 61.200 2.040
79 40.800 63.240 2.040
79 63.240 28.560 2.040
79 61.200 30.600 2.040
79 46.920 61.200 2.040
79 44.880 63.240 2.040
79 79.560 0.000 2.040
79 77.520 2.040 2.040
79 51.000 61.200 2.040
79 48.960 63.240 2.040
79 67.320 28.560 2.040
79 65.280 30.600 2.040
79 55.080 61.200 2.040
79 53.040 63.240 2.040
79 75.480 12.240 2.040
79 73.440 14.280 2.040
79 59.160 61.200 2.040
79 57.120 63.240 2.040
79 71.400 28.560 2.040
79 69.360 30.600 2.040
79 63.240 61.200 2.040
79 61.200 63.240 2.040
79 79.560 4.080 2.040
79 77.520 6.120 2.040
79 67.320 61.200 2.040
79 65.280 63.240 2.040
79 75.480 28.560 2.040
79 73.440 30.600 2.040
79 71.400 61.200 2.040
79 69.360 63.240 2.040
79 79.560 12.240 2.040
79 77.520 14.280 2.040
79 75.480 61.200 2.040
79 73.440 63.240 2.040
79 79.560 28.560 2.040
79 77.520 30.600 2.040
79 79.560 61.200 2.040
79 77.520 63.240 2.040
79 10.200 0.000 2.040
79 8.160 2.040 2.040
79 2.040 65.280 2.040
79 0.000 67.320 2.040
79 2.040 32.640 2.040
79 0.000 34.680 2.040
79 6.120 65.280 2.040
79 4.080 67.320 2.040
79 2.040 16.320 2.040
79 0.000 18.360 2.040
79 10.200 65.280 2.040
79 8.160 67.320 2.040
79 6.120 32.640 2.040
79 4.080 34.680 2.040
79 14.280 65.280 2.040
79 12.240 67.320 2.040
79 2.040 8.160 2.040
79 0.000 10.200 2.040
79 18.360 65.280 2.040
79 16.320 67.320 2.040
79 10.200 32.640 2.040
79 8.160 34.680 2.040
79 22.440 65.280 2.040
79 20.400 67.320 2.040
79 6.120 16.320 2.040
79 4.080 18.360 2.040
79 26.520 65.280 2.040
79 24.480 67.320 2.040
79 14.280 32.640 2.040
79 12.240 34.680 2.040
79 30.600 65.280 2.040
79 28.560 67.320 2.040
79 2.040 4.080 2.040
79 0.000 6.120 2.040
79 34.680 65.280 2.040
79 32.640 67.320 2.040
79 18.360 32.640 2.040
79 16.320 34.680 2.040